<?xml version="1.0" encoding="UTF-8"?>
<VTKFile type="UnstructuredGrid" version="0.1" byte_order="LittleEndian">
<UnstructuredGrid>
<Piece NumberOfPoints="268" NumberOfCells="476">
<PointData>
<DataArray type="Float64" Name="&#x6e29;&#x5ea6;" Format="ascii">
362.4537410039117
293.15
293.15
293.15
435.1719676746161
293.15
495.1848787046038
293.15
465.2380875092226
293.15
532.542561578084
293.15
504.9885155985299
293.15
547.4214407979863
293.15
547.3506216362813
293.15
544.005544863376
293.15
532.9439505894001
293.15
503.5923524280111
293.15
575.2961645213022
293.15
465.25468173118486
293.15
362.8576855447552
293.15
595.1480194637298
293.15
293.15
609.3950220524658
293.15
436.44615093045326
293.15
615.4185288040976
293.15
503.94389573604576
293.15
619.2460793157614
293.15
555.3316090612751
293.15
620.636357911273
293.15
582.2411240977436
293.15
619.4135206221882
293.15
601.704814328128
293.15
615.4886291175636
293.15
608.9038024686262
293.15
613.7941111814631
293.15
598.256224974678
293.15
576.2238906307521
293.15
621.5984356220883
293.15
546.973784985243
293.15
499.76293740366003
293.15
625.9919882954299
293.15
437.70165521213727
293.15
363.09156186686414
293.15
627.412722243441
293.15
293.15
625.9695895839594
293.15
293.15
465.35376620444634
621.4556767348466
293.15
293.15
506.27107449835074
613.2890127896245
293.15
293.15
536.6649522261563
600.3919087079938
293.15
550.5091361546391
293.15
580.92271847317
293.15
549.2489898925388
293.15
550.3663500094832
293.15
533.3197308019224
293.15
507.1746378646174
293.15
497.61109630878224
293.15
467.93325052579115
293.15
439.7031490654801
293.15
363.6663545604235
293.15
603.7995106079135
692.1179201931346
625.9753847096781
735.7332333852137
860.7839151330503
783.6496611598288
702.8882171132494
749.3896310388619
736.7403331607774
900.0668344542304
1003.4020944852458
934.1053557471694
890.4874067675645
771.5079277694384
698.4178884944623
628.6810245124327
900.8975180803917
865.7421223941525
1024.2013804563428
1107.7574163343907
1052.9852658830298
967.6111594811683
818.9896912015248
610.0458307409413
793.2809910823069
1004.3169774092083
939.4007995238114
1110.2802593746535
1168.6631075024213
1169.0403041734082
1120.5636556683078
1018.9882251243545
850.5931619486058
715.2733135645866
900.703845348491
1062.35098334097
1172.9152438001822
1225.016629423639
1226.0502902030305
1169.644937023867
1052.442272472793
868.518068936755
784.8275101190115
979.4725707375748
1126.4445591976382
1229.9938854612267
1276.702366266696
1269.0710215135593
1202.3886177347167
1073.3264768943093
879.3263459018491
829.3022025296824
1029.0757270631757
1177.5877323255124
1273.6429203728833
1314.4614612336065
1298.3298940072564
1222.42015648138
1084.94122778424
884.5164288396318
858.7024503611575
1062.1207854013464
1210.5951043052582
1302.9608069296553
1338.2406680621455
1315.0051269006924
1232.0425935688816
1088.7257016395636
884.8003407502338
877.7413505418848
1083.666726283696
1231.0125536993867
1319.7591756268068
879.5710999120241
1349.6886449938172
1320.4587492609405
1232.1183592214047
1085.0746049600455
889.2735726190093
1095.6594663799715
1240.8074555739388
1325.2709924510898
868.9521928218136
1073.6564439473548
1349.8113600652362
1315.2236624005852
1222.6512991237548
851.3382631583689
894.8270701186403
1099.5792752909654
1240.8700339918335
1319.9768422146215
1053.410145307116
1202.79524886733
1338.6372696587157
1298.827280837739
822.7330293461581
1021.7992508610545
776.6597380998736
894.8129552196632
1095.6665284018188
1231.1761162344608
1303.4189637448364
1171.0374926200564
1269.953016818924
1315.203044396838
974.1644808828818
1124.043863215178
895.9434924534589
709.2155704670134
602.9003877910387
889.1798171653073
1083.521981715331
1210.8687033903955
1274.2883341479044
1226.7566049455443
1277.8255617831944
1170.6500705403066
1060.5942549891652
940.8301495443317
792.1026673916983
630.2573341069597
877.2699500786867
1061.8851178126706
1178.0421074469389
1230.8580098383725
1226.295022488368
1169.482156900408
1109.0850616380976
1008.3557499861719
868.8310556903776
703.9999077888195
857.625813991362
1028.1736784842324
1127.937895507365
1173.1272854279684
1110.3358431280724
1027.637102926786
905.1564892384107
741.1379648864803
827.6814751904593
978.1766702444969
1059.5409786597577
1006.736853630513
905.0491701785817
753.6503254532112
780.6342788859148
897.2544880546276
939.3909076527249
866.0640899307404
739.0694672301088
714.8054469019511
791.8426410079638
696.1586613511544
632.985816169553
607.6777320753075
</DataArray>
<DataArray type="Float64" Name="&#x7535;&#x52bf;" Format="ascii">
0.48304505339652104
0.5
0.5
0.4736842105263157
0.481017634805918
0.5
0.47965802790785667
0.5
0.46052342165037174
0.4473684210526316
0.4790849188926856
0.5
0.4342865171737676
0.4210526315789474
0.479132675031625
0.5
0.4791609912151283
0.5
0.40840143153212544
0.3947368421052631
0.4791358312754915
0.5
0.47904180642754485
0.5
0.38216500225555006
0.3684210526315789
0.47638102807874116
0.5
0.48203868926032784
0.5
0.3557449113505812
0.3421052631578947
0.47368421052631576
0.3291778139225327
0.3157894736842105
0.46012820769658225
0.44736842105263164
0.30283970969868085
0.28947368421052627
0.43526816723974554
0.4210526315789475
0.27649450290162925
0.2631578947368421
0.40861699001126667
0.3947368421052632
0.2501807881683465
0.23684210526315788
0.3820225434326671
0.368421052631579
0.22386717546483767
0.21052631578947367
0.35549248358680413
0.34210526315789486
0.19758148054013128
0.18421052631578946
0.1713225104295949
0.15789473684210525
0.32903773435215117
0.31578947368421056
0.14500221316044348
0.13157894736842105
0.11850130950414033
0.10526315789473684
0.3026872678505872
0.2894736842105263
0.0922169930161164
0.07894736842105265
0.06595366402740548
0.05263157894736838
0.2763723279305219
0.26315789473684215
0.04013895266459294
0.02631578947368419
0.018038841823637016
0
0.2500743831406529
0.23684210526315788
0
0.22378730703596572
0.21052631578947376
0
0.02373946697990818
0.19750277819957995
0.1842105263157895
0
0.02144272852740506
0.17121222483869733
0.15789473684210528
0
0.021262878974898352
0.1449187753175961
0.13157894736842107
0.021147179764394782
0
0.11865184926399806
0.10526315789473684
0.02102660389494848
0
0.09264893599306011
0.07894736842105265
0.02094955846204201
0
0.06730436072588007
0.052631578947368474
0.020551533810313802
0
0.04016890120224875
0.026315789473684296
0.01952594641492311
0
0.017202127418171113
0
0.45931660857039863
0.45811690694228174
0.4416532590853435
0.458304936445185
0.4375372063932769
0.43479974344428773
0.42016536341467353
0.45849024422176904
0.4584730438276358
0.437887957867553
0.4171893998732003
0.418576660268401
0.4076115082895106
0.3948065229352429
0.4582334849028111
0.4595320902698055
0.43799502723590517
0.43782443314430736
0.4178111222311856
0.3981291353597674
0.39553165838938087
0.3817891012850776
0.3687067315853693
0.44812586903447543
0.4354288193579522
0.4176341207550718
0.41918210278646806
0.39803109229561623
0.38289033001245204
0.3770801942212952
0.3683295595169991
0.35540046480338333
0.34234556218079876
0.4220169015640253
0.4081278691865245
0.39559592441872965
0.3770445894143531
0.3641666387712281
0.3534335697644612
0.34211480963653
0.32910209678244406
0.31600963147884825
0.3952776043573145
0.3818086188669312
0.36806499983470187
0.35351827763990845
0.34056629585455994
0.3283188995364117
0.3158937998315697
0.3028239959294295
0.28969666674882993
0.3687041508316637
0.35544072688679823
0.34161704611755356
0.3281977213973403
0.3152411073806584
0.30250392986596525
0.2896740824319029
0.2765448728745197
0.26339371954303076
0.3422628609173765
0.32891708127498503
0.3155561355172129
0.3023843792254659
0.28938849163131547
0.2764372582238313
0.2633979824306836
0.2502783018145442
0.23713768245471442
0.3158773411600486
0.3026670762288961
0.2894780533849662
0.2763827503212035
0.2108992462024896
0.2633457553916387
0.25029394140898603
0.23718641977690272
0.2240464590511925
0.28955932455556926
0.276433341619926
0.2633394103277246
0.2502887317296172
0.1846631090386022
0.1978363635845735
0.2372571126939094
0.2241709277676254
0.21097687643359705
0.1583749149521874
0.2632813097958157
0.25021467476954745
0.23718741440617822
0.22420433674926263
0.17163109204383709
0.18480951273854743
0.21123249620791126
0.19814246017094586
0.13202778638181334
0.14539183748254428
0.10557583783928202
0.23702098058037893
0.2240131473633109
0.21107413482082513
0.19822389842932062
0.15871105469886168
0.17235066502068805
0.1854086056042289
0.11891048635269107
0.13269569046587568
0.09297498244539638
0.07905824228137283
0.052728847348200526
0.21077951068260828
0.19784467564001432
0.18503952272890165
0.17246420316969893
0.14705433336527182
0.1600645821250852
0.12294328703305536
0.10495707178039236
0.08168169887115699
0.06489912901183571
0.04108876214581423
0.18454371275471057
0.17168169011973164
0.15902932655524663
0.147098054795474
0.1363266913071203
0.11735215600451207
0.10190949975599954
0.0835838575385709
0.06298401343997895
0.04282346835475324
0.15827839463072355
0.14539833263484256
0.13253690585957803
0.1234635790670382
0.10226463376230444
0.0828530341845597
0.0627525260430626
0.0421634008204946
0.13196864617241302
0.11892047954512981
0.10524419813986528
0.08342025911845587
0.06276989622889372
0.042010255615489066
0.10593471281922993
0.09301996557969121
0.08190402827597514
0.06292302831822734
0.04197122068064426
0.0805302448811978
0.0657550606474282
0.04214798156426495
0.05920559121199752
0.040690553480271945
</DataArray>
</PointData>
<CellData/>
<Points>
<DataArray type="Float64" NumberOfComponents="3" Format="ascii">
6.781978641391569E-4 6.849168379545461E-4 0
0 0.001 0
0 0 0
0.0010526315789473716 0 0
7.592946077632823E-4 0.0015156323531722426 0
0 0.002 0
8.136788836857322E-4 0.0025000441115266715 0
0 0.003 0
0.0015790631339851304 9.089518366004881E-4 0
0.002105263157894739 0 0
8.366032442925774E-4 0.003490793444471912 0
0 0.004 0
0.0026285393130492966 8.206448556511515E-4 0
0.003157894736842106 0 0
8.346929987350008E-4 0.004484929425295986 0
0 0.005 0
8.335603513948687E-4 0.005472970802271826 0
0 0.006 0
0.003663942738714983 8.21345469930504E-4 0
0.004210526315789474 0 0
8.345667489803387E-4 0.006453666065881561 0
0 0.006999999999999999 0
8.383277428982046E-4 0.007395157851065143 0
0 0.007999999999999998 0
0.004713399909777996 8.350730398894121E-4 0
0.005263157894736843 0 0
9.447588768503525E-4 0.008480382811792099 0
0 0.009 0
7.184524295868867E-4 0.009349522787164988 0
0 0.01 0
0.005770203545976751 8.373523180549559E-4 0
0.006315789473684212 0 0
0.0010526315789473684 0.01 0
0.006832887443098693 8.409394393800644E-4 0
0.00736842105263158 0 0
0.0015948716921367126 0.009267231124032842 0
0.002105263157894737 0.010000000000000002 0
0.007886411612052766 8.342596799509655E-4 0
0.008421052631578949 0 0
0.0025892733104101767 0.009181428891658789 0
0.003157894736842105 0.01 0
0.00894021988393483 8.31967916404126E-4 0
0.009473684210526316 0 0
0.0036553203995493356 0.0091368602934217 0
0.004210526315789473 0.01 0
0.00999276847326614 8.316671539359843E-4 0
0.010526315789473686 0 0
0.0047190982626933164 0.009142306833019403 0
0.005263157894736842 0.01 0
0.011045312981406492 8.323109934657119E-4 0
0.011578947368421053 0 0
0.005780300656527837 0.009142786213732011 0
0.00631578947368421 0.01 0
0.012096740778394748 8.34112166957061E-4 0
0.01263157894736842 0 0
0.013147099582816204 8.387827553871896E-4 0
0.01368421052631579 0 0
0.006838490625913955 0.009146197452621777 0
0.007368421052631579 0.01 0
0.014199911473582261 8.453933512974035E-4 0
0.01473684210526316 0 0
0.015259947619834388 8.35840898965305E-4 0
0.015789473684210527 0 0
0.007892509285976514 0.009148060704932513 0
0.008421052631578947 0.01 0
0.016311320279355345 8.27915357265633E-4 0
0.016842105263157894 0 0
0.01736185343890378 7.918312512581291E-4 0
0.017894736842105265 0 0
0.008945106882779125 0.009148961312852777 0
0.009473684210526315 0.01 0
0.018394441893416283 7.369549117977815E-4 0
0.018947368421052633 0 0
0.01927844632705452 6.498485484211332E-4 0
0.02 0 0
0.009997024674373885 0.009149244188566929 0
0.010526315789473684 0.01 0
0.02 0.0010000000000000009 0
0.011048507718561371 0.009149099405269489 0
0.011578947368421052 0.01 0
0.02 0.0020000000000000018 0
0.019050421320803673 0.0015122878303078838 0
0.012099888872016802 0.009148655684906746 0
0.01263157894736842 0.01 0
0.02 0.0030000000000000005 0
0.019142290858903798 0.002569162682872943 0
0.013151511006452107 0.009148100624548334 0
0.013684210526315788 0.01 0
0.02 0.004 0
0.019149484841004066 0.003534116790079882 0
0.014203248987296156 0.00914781663423046 0
0.014736842105263158 0.01 0
0.01915411280942421 0.004506758861871823 0
0.02 0.005 0
0.015253926029440078 0.009148726332393376 0
0.015789473684210527 0.01 0
0.01915893584420206 0.005496933917801487 0
0.02 0.006 0
0.016294042560277597 0.009160346557129776 0
0.016842105263157894 0.01 0
0.01916201766151832 0.006488921087809279 0
0.019999999999999997 0.006999999999999999 0
0.0173078255709648 0.009181484043754996 0
0.017894736842105262 0.01 0
0.019177938647587447 0.007481144022395446 0
0.02 0.008 0
0.01839324395191005 0.009085390695670945 0
0.01894736842105263 0.01 0
0.019218962143403077 0.008465915501026853 0
0.020000000000000004 0.009000000000000001 0
0.019311914903273157 0.009310261239339559 0
0.02 0.01 0
0.001627335657184057 0.0020039482869027322 0
0.0016753237223087307 0.002992533819825978 0
0.0023338696365862626 0.0015657365749191458 0
0.0016678025421926006 0.00397959193983409 0
0.002498511744268925 0.003510349835108761 0
0.0026080102622284924 0.002470475301111697 0
0.0031933854634130605 0.001607571479717215 0
0.0016603902311292395 0.004964398403476638 0
0.0016610782468945695 0.005930237223602484 0
0.00248448168529788 0.004482686132704086 0
0.0033124240050719897 0.004044048061679488 0
0.003256933589263957 0.003205518860227677 0
0.003695539668419576 0.002482511771291178 0
0.004207739082590285 0.001654709327339768 0
0.0016706606038875596 0.006877805403054618 0
0.0016187163892077798 0.007690270270784526 0
0.0024801989105637905 0.00543554230080342 0
0.002487022674227707 0.0063769807868067525 0
0.0032875551107525744 0.0049621798614263865 0
0.004074834585609303 0.004514104807085463 0
0.004178733664424766 0.003447256895699455 0
0.004728435948596896 0.002509538763651253 0
0.005251730736585226 0.0016722143989844718 0
0.002074965238620987 0.008390031221993074 0
0.0025828472256819086 0.007419350601862939 0
0.00329463516979713 0.005891618984817589 0
0.0032327158885412815 0.0067073302066994606 0
0.004078756308175353 0.005405078881468272 0
0.00468438679950192 0.004960921911313611 0
0.004916792231148193 0.004236947222002686 0
0.005266817619320039 0.0033613140959034946 0
0.005783981407864666 0.0025105590396014813 0
0.006306177512768048 0.001677574160748814 0
0.003119323937438989 0.008301523631827241 0
0.0036748852325390203 0.007437363176157407 0
0.004176163023250816 0.006450029592321603 0
0.004918216423425876 0.005686918678891766 0
0.005433334449150875 0.00496155996711987 0
0.005862657209421552 0.004176539468460902 0
0.006315407614538799 0.0033394325872471956 0
0.006835916128702238 0.0025029844615498385 0
0.007359614740846069 0.0016693345819553112 0
0.004188895825707422 0.008280468787945961 0
0.004727655245322753 0.007419951306709882 0
0.005277400006611926 0.006592017080678516 0
0.005859268894403662 0.005751918454015414 0
0.0063773481658176 0.004962294264760551 0
0.006867244018543533 0.004151279308450362 0
0.007364248006737213 0.00332555367582619 0
0.007887040162822821 0.002495056424705142 0
0.008412133330046803 0.001664011119547845 0
0.005251833966733456 0.008284999169706419 0
0.005782370924528071 0.007433851504423039 0
0.006335318155297862 0.006603099464445578 0
0.0068720911441063895 0.005778574133208532 0
0.007390355704773663 0.004964489302265425 0
0.007899842805361391 0.004143234027977761 0
0.008413036702723885 0.00331762103104052 0
0.008938205085019213 0.0024903569496756484 0
0.00946425121827877 0.00166173039029855 0
0.006309485563304941 0.008291209688436356 0
0.006843316749000603 0.007448077004791596 0
0.007377754579311485 0.006614540978514386 0
0.007904624830981364 0.005788331793857834 0
0.00842446033474738 0.004964988126163709 0
0.008942509671046745 0.004139679278091358 0
0.009464080702772657 0.003314448168292159 0
0.009988867927418236 0.0024889045817097825 0
0.010514492701811425 0.001662519508477268 0
0.007364906353598057 0.008296637781191524 0
0.007893316950844156 0.00745423681602207 0
0.00842087786460135 0.00661979016278532 0
0.008944689987151859 0.005790662471618298 0
0.011564030151900417 0.001664152350383371 0
0.009466169784334455 0.0049646313769061414 0
0.009988242343640558 0.004138540038533228 0
0.010512543208923891 0.0033142307436972423 0
0.011038141637952302 0.002490141767652548 0
0.008417627017777226 0.008300120472616586 0
0.008942666335202961 0.007457869354116651 0
0.009466423586891015 0.006621882207209945 0
0.009988450730815312 0.005791264700042961 0
0.012613475638455912 0.0016694269025060932 0
0.01208654545661706 0.0024945868395729862 0
0.010509715492243625 0.004964608564661401 0
0.011033162889294984 0.004139333233767508 0
0.01156092494265612 0.003316622559558618 0
0.013665003401912505 0.0016778451205890946 0
0.009468747608167372 0.008301434071004964 0
0.009991413009218105 0.00745891603336354 0
0.010512503423752873 0.0066221467901898855 0
0.011031826530029496 0.005790989462844756 0
0.013134756318246517 0.002503980909118748 0
0.012607619490458103 0.003323217681345626 0
0.01155070015168355 0.004965051305185818 0
0.012074301593162166 0.0041424899511966875 0
0.014718888544727467 0.0016832196180963455 0
0.014184326500698228 0.0025188778838991003 0
0.01577696648642872 0.0016742643895191923 0
0.010519160776784843 0.008301624733431464 0
0.011039474105467564 0.007458557414108259 0
0.011557034607166996 0.006620954247799793 0
0.012071044062827175 0.0057893875092427174 0
0.013651557812045535 0.003339927580807622 0
0.01310597339917248 0.0041507756278739896 0
0.012583655775830845 0.004965740889434017 0
0.015243580545892359 0.0025377263163642158 0
0.014692172381364974 0.003370567758418574 0
0.016281000702184144 0.0025053964869254037 0
0.016837670308745088 0.0016488087794882071 0
0.01789084610607198 0.0015373084217001924 0
0.011568819572695668 0.008300944782420378 0
0.012086212974399426 0.007456712953284345 0
0.012598419090843934 0.006617158610324421 0
0.013101431873212043 0.005783360891154085 0
0.01411782666538913 0.0041724898041069726 0
0.013597416714996593 0.004965463778450804 0
0.015082268518677786 0.00426656395700541 0
0.015801717128784306 0.003509783049261146 0
0.01673273204515372 0.00326478974321695 0
0.017404034839526572 0.0025561367702606917 0
0.01835644951416743 0.002282254694312352 0
0.012618251489811577 0.008299465669435855 0
0.013132732395210735 0.007452771819831166 0
0.013638826937790135 0.006607714460283998 0
0.01411607780818104 0.00576014506644901 0
0.014546932347715189 0.0049781898956505815 0
0.015305913759819517 0.004991985607229701 0
0.01592362000976002 0.00455616219261493 0
0.016656645698457165 0.004067274890282542 0
0.017480639462400843 0.0035912111481432225 0
0.01828706126580987 0.0030864242512878026 0
0.013668864214771058 0.00829744668712887 0
0.014184066694606298 0.007446353626709913 0
0.014698523765616879 0.006591639746336981 0
0.015061456837318472 0.005713384909690173 0
0.015909414649507823 0.005448049197736818 0
0.016685878632617612 0.004999536744758303 0
0.017489898958277496 0.004530265591743225 0
0.018313463967180216 0.004042375642068125 0
0.01472125415310348 0.008295798870364352 0
0.015243180818194807 0.007437070422449392 0
0.01579023207440539 0.006511227061952419 0
0.016663189635261765 0.005948120360174573 0
0.01748920415084425 0.005481999302666162 0
0.018319589775380438 0.005005480658886366 0
0.015762611487230804 0.008310225641383806 0
0.016279201376812352 0.00748583487075281 0
0.016723838868960995 0.006760866745704412 0
0.017483078867270907 0.0064484788316870306 0
0.01832115117277423 0.005982466064129491 0
0.01677879020475209 0.008340045357508825 0
0.017369797574102872 0.007480740335558406 0
0.018314080737429402 0.00697298258592662 0
0.0176317763515201 0.00840904205441111 0
0.018372377860789123 0.007956928729290868 0
</DataArray>
</Points>
<Cells>
<DataArray type="Int32" Name="connectivity" Format="ascii">
0 1 2
0 2 3
4 5 1
6 7 5
8 3 9
10 11 7
12 9 13
14 15 11
16 17 15
18 13 19
20 21 17
21 22 23
24 19 25
23 26 27
28 29 27
30 25 31
28 32 29
33 31 34
35 36 32
37 34 38
39 40 36
41 38 42
43 44 40
45 42 46
47 48 44
49 46 50
51 52 48
53 50 54
55 54 56
57 58 52
59 56 60
61 60 62
63 64 58
65 62 66
67 66 68
69 70 64
71 68 72
73 72 74
75 76 70
73 74 77
78 79 76
80 81 77
82 83 79
84 85 80
86 87 83
88 89 84
90 91 87
92 88 93
94 95 91
96 93 97
98 99 95
100 97 101
102 103 99
104 101 105
103 106 107
108 105 109
110 109 111
110 111 107
0 4 1
5 4 6
0 3 8
0 8 4
7 6 10
6 4 112
4 8 112
10 6 113
112 113 6
114 112 8
9 12 8
114 8 12
11 10 14
15 14 16
115 14 10
10 113 115
116 115 113
113 112 117
116 113 117
114 117 112
114 12 118
114 118 117
13 18 12
118 12 18
20 17 16
22 21 20
119 16 14
14 115 119
120 20 16
120 16 119
121 119 115
115 116 121
121 116 122
123 116 117
123 122 116
118 124 117
123 117 124
18 125 118
124 118 125
19 24 18
125 18 24
23 22 26
28 27 26
20 126 22
126 20 120
127 26 22
127 22 126
128 120 119
128 119 121
120 129 126
129 120 128
130 128 121
130 121 122
131 130 122
123 124 132
123 132 122
122 132 131
125 133 124
124 133 132
25 30 24
134 24 30
24 134 125
133 125 134
127 135 26
28 26 35
35 26 135
28 35 32
127 126 136
129 136 126
127 136 135
137 128 130
128 137 129
138 136 129
138 129 137
139 137 130
131 139 130
140 139 131
131 132 141
140 131 141
133 142 132
141 132 142
134 143 133
142 133 143
31 33 30
144 30 33
30 144 134
143 134 144
145 135 136
39 35 135
39 135 145
36 35 39
145 136 146
138 146 136
138 147 146
138 137 147
137 139 147
139 148 147
140 148 139
140 141 149
140 149 148
141 142 150
149 141 150
143 151 142
150 142 151
144 152 143
151 143 152
34 37 33
153 33 37
33 153 144
152 144 153
146 154 145
145 43 39
43 145 154
40 39 43
154 146 155
146 147 155
156 155 147
148 156 147
148 157 156
149 157 148
149 158 157
150 158 149
151 159 150
158 150 159
152 160 151
159 151 160
153 161 152
160 152 161
38 41 37
162 37 41
37 162 153
161 153 162
155 163 154
154 47 43
47 154 163
44 43 47
163 155 164
156 164 155
164 156 165
157 165 156
165 157 166
158 166 157
166 158 167
159 167 158
160 168 159
167 159 168
161 169 160
168 160 169
162 170 161
169 161 170
42 45 41
171 41 45
41 171 162
170 162 171
164 172 163
163 51 47
51 163 172
48 47 51
172 164 173
165 173 164
173 165 174
166 174 165
174 166 175
167 175 166
46 49 45
175 167 176
168 176 167
169 177 168
176 168 177
170 178 169
177 169 178
171 179 170
178 170 179
180 45 49
45 180 171
179 171 180
173 181 172
172 57 51
57 172 181
52 51 57
181 173 182
174 182 173
182 174 183
175 183 174
183 175 184
176 184 175
50 53 49
185 49 53
49 185 180
184 176 186
177 186 176
178 187 177
186 177 187
179 188 178
187 178 188
189 180 185
180 189 179
188 179 189
54 55 53
182 190 181
181 63 57
63 181 190
58 57 63
190 182 191
183 191 182
191 183 192
184 192 183
192 184 193
186 193 184
194 53 55
53 194 185
195 185 194
185 195 189
193 186 196
187 196 186
188 197 187
196 187 197
198 189 195
189 198 188
197 188 198
56 59 55
199 55 59
55 199 194
60 61 59
191 200 190
190 69 63
69 190 200
64 63 69
200 191 201
192 201 191
201 192 202
193 202 192
202 193 203
196 203 193
204 194 199
194 204 195
205 195 204
195 205 198
203 196 206
197 206 196
207 198 205
198 207 197
206 197 207
208 59 61
59 208 199
209 199 208
199 209 204
62 65 61
210 61 65
61 210 208
66 67 65
201 211 200
200 75 69
75 200 211
70 69 75
211 201 212
202 212 201
212 202 213
203 213 202
213 203 214
206 214 203
215 204 209
204 215 205
216 205 215
205 216 207
217 207 216
214 206 217
207 217 206
218 208 210
208 218 209
219 209 218
209 219 215
210 220 218
221 65 67
65 221 210
220 210 221
67 222 221
68 71 67
222 67 71
73 71 72
212 223 211
211 78 75
78 211 223
76 75 78
223 212 224
213 224 212
224 213 225
214 225 213
225 214 226
217 226 214
227 215 219
215 227 216
228 216 227
226 217 228
216 228 217
229 227 219
220 230 218
219 218 230
229 219 230
231 230 220
221 222 232
221 232 220
231 220 232
233 232 222
73 81 71
71 81 222
233 222 81
73 77 81
224 234 223
223 82 78
82 223 234
79 78 82
234 224 235
225 235 224
235 225 236
226 236 225
236 226 237
228 237 226
238 227 229
237 228 238
227 238 228
239 238 229
229 230 240
239 229 240
231 241 230
241 240 230
231 232 242
231 242 241
233 243 232
243 242 232
233 81 85
233 85 243
85 81 80
235 244 234
234 86 82
86 234 244
83 82 86
244 235 245
236 245 235
245 236 246
237 246 236
247 246 237
238 247 237
239 247 238
239 240 248
239 248 247
240 241 249
240 249 248
242 250 241
249 241 250
242 243 251
242 251 250
89 243 85
243 89 251
85 84 89
245 252 244
244 90 86
90 244 252
87 86 90
252 245 253
246 253 245
253 246 254
247 254 246
248 254 247
248 249 255
255 254 248
249 250 256
256 255 249
250 251 257
250 257 256
92 251 89
251 92 257
89 88 92
253 258 252
252 94 90
94 252 258
91 90 94
258 253 259
253 254 259
260 259 254
260 254 255
255 256 261
260 255 261
256 257 262
261 256 262
257 92 96
96 262 257
93 96 92
259 263 258
258 98 94
98 258 263
95 94 98
263 259 264
260 261 264
260 264 259
261 262 265
261 265 264
262 96 100
100 265 262
97 100 96
266 263 264
263 102 98
266 102 263
99 98 102
265 267 264
266 264 267
100 104 265
267 265 104
101 104 100
266 106 102
266 267 106
103 102 106
104 108 267
108 106 267
105 108 104
110 106 108
110 107 106
110 108 109
</DataArray>
<DataArray type="Int32" Name="offsets" Format="ascii">
3 6 9 12
15 18 21 24
27 30 33 36
39 42 45 48
51 54 57 60
63 66 69 72
75 78 81 84
87 90 93 96
99 102 105 108
111 114 117 120
123 126 129 132
135 138 141 144
147 150 153 156
159 162 165 168
171 174 177 180
183 186 189 192
195 198 201 204
207 210 213 216
219 222 225 228
231 234 237 240
243 246 249 252
255 258 261 264
267 270 273 276
279 282 285 288
291 294 297 300
303 306 309 312
315 318 321 324
327 330 333 336
339 342 345 348
351 354 357 360
363 366 369 372
375 378 381 384
387 390 393 396
399 402 405 408
411 414 417 420
423 426 429 432
435 438 441 444
447 450 453 456
459 462 465 468
471 474 477 480
483 486 489 492
495 498 501 504
507 510 513 516
519 522 525 528
531 534 537 540
543 546 549 552
555 558 561 564
567 570 573 576
579 582 585 588
591 594 597 600
603 606 609 612
615 618 621 624
627 630 633 636
639 642 645 648
651 654 657 660
663 666 669 672
675 678 681 684
687 690 693 696
699 702 705 708
711 714 717 720
723 726 729 732
735 738 741 744
747 750 753 756
759 762 765 768
771 774 777 780
783 786 789 792
795 798 801 804
807 810 813 816
819 822 825 828
831 834 837 840
843 846 849 852
855 858 861 864
867 870 873 876
879 882 885 888
891 894 897 900
903 906 909 912
915 918 921 924
927 930 933 936
939 942 945 948
951 954 957 960
963 966 969 972
975 978 981 984
987 990 993 996
999 1002 1005 1008
1011 1014 1017 1020
1023 1026 1029 1032
1035 1038 1041 1044
1047 1050 1053 1056
1059 1062 1065 1068
1071 1074 1077 1080
1083 1086 1089 1092
1095 1098 1101 1104
1107 1110 1113 1116
1119 1122 1125 1128
1131 1134 1137 1140
1143 1146 1149 1152
1155 1158 1161 1164
1167 1170 1173 1176
1179 1182 1185 1188
1191 1194 1197 1200
1203 1206 1209 1212
1215 1218 1221 1224
1227 1230 1233 1236
1239 1242 1245 1248
1251 1254 1257 1260
1263 1266 1269 1272
1275 1278 1281 1284
1287 1290 1293 1296
1299 1302 1305 1308
1311 1314 1317 1320
1323 1326 1329 1332
1335 1338 1341 1344
1347 1350 1353 1356
1359 1362 1365 1368
1371 1374 1377 1380
1383 1386 1389 1392
1395 1398 1401 1404
1407 1410 1413 1416
1419 1422 1425 1428
</DataArray>
<DataArray type="UInt8" Name="types" Format="ascii">
5 5 5 5 5 5 5 5 5 5 5 5 5 5 5 5
5 5 5 5 5 5 5 5 5 5 5 5 5 5 5 5
5 5 5 5 5 5 5 5 5 5 5 5 5 5 5 5
5 5 5 5 5 5 5 5 5 5 5 5 5 5 5 5
5 5 5 5 5 5 5 5 5 5 5 5 5 5 5 5
5 5 5 5 5 5 5 5 5 5 5 5 5 5 5 5
5 5 5 5 5 5 5 5 5 5 5 5 5 5 5 5
5 5 5 5 5 5 5 5 5 5 5 5 5 5 5 5
5 5 5 5 5 5 5 5 5 5 5 5 5 5 5 5
5 5 5 5 5 5 5 5 5 5 5 5 5 5 5 5
5 5 5 5 5 5 5 5 5 5 5 5 5 5 5 5
5 5 5 5 5 5 5 5 5 5 5 5 5 5 5 5
5 5 5 5 5 5 5 5 5 5 5 5 5 5 5 5
5 5 5 5 5 5 5 5 5 5 5 5 5 5 5 5
5 5 5 5 5 5 5 5 5 5 5 5 5 5 5 5
5 5 5 5 5 5 5 5 5 5 5 5 5 5 5 5
5 5 5 5 5 5 5 5 5 5 5 5 5 5 5 5
5 5 5 5 5 5 5 5 5 5 5 5 5 5 5 5
5 5 5 5 5 5 5 5 5 5 5 5 5 5 5 5
5 5 5 5 5 5 5 5 5 5 5 5 5 5 5 5
5 5 5 5 5 5 5 5 5 5 5 5 5 5 5 5
5 5 5 5 5 5 5 5 5 5 5 5 5 5 5 5
5 5 5 5 5 5 5 5 5 5 5 5 5 5 5 5
5 5 5 5 5 5 5 5 5 5 5 5 5 5 5 5
5 5 5 5 5 5 5 5 5 5 5 5 5 5 5 5
5 5 5 5 5 5 5 5 5 5 5 5 5 5 5 5
5 5 5 5 5 5 5 5 5 5 5 5 5 5 5 5
5 5 5 5 5 5 5 5 5 5 5 5 5 5 5 5
5 5 5 5 5 5 5 5 5 5 5 5 5 5 5 5
5 5 5 5 5 5 5 5 5 5 5 5
</DataArray>
</Cells>
</Piece>
</UnstructuredGrid>
</VTKFile>
