<?xml version="1.0" encoding="UTF-8"?>
<VTKFile type="UnstructuredGrid" version="0.1" byte_order="LittleEndian">
<UnstructuredGrid>
<Piece NumberOfPoints="135" NumberOfCells="348">
<PointData>
<DataArray type="Float64" Name="&#x6e29;&#x5ea6;" Format="ascii">
293.15
293.15
293.15000000000003
293.15000000000003
293.15
293.15
293.15000000000003
293.15000000000003
293.15000000000003
293.15000000000003
293.15
293.15
293.15000000000003
293.15
293.15000000000003
293.15000000000003
312.5874731459553
293.15000000000003
293.15000000000003
293.15000000000003
293.15000000000003
293.15000000000003
293.15000000000003
312.87493262982184
293.15000000000003
293.15000000000003
293.15000000000003
293.15000000000003
293.15000000000003
293.15000000000003
293.15000000000003
313.2249510834497
293.15000000000003
293.15000000000003
293.15000000000003
293.15000000000003
293.15000000000003
293.15000000000003
293.15000000000003
313.1560426291306
293.15000000000003
293.15000000000003
293.15000000000003
293.15000000000003
293.15000000000003
293.15000000000003
293.15000000000003
293.15000000000003
312.6950635495899
293.15000000000003
293.15000000000003
293.15000000000003
293.15000000000003
293.15000000000003
293.15000000000003
293.15000000000003
293.15000000000003
311.8761796824363
293.15000000000003
293.15000000000003
293.15000000000003
293.15000000000003
293.15000000000003
293.15000000000003
293.15000000000003
293.15000000000003
293.15000000000003
311.8838283535279
293.15000000000003
293.15000000000003
293.15000000000003
293.15000000000003
293.15000000000003
293.15000000000003
293.15000000000003
312.6232604904319
293.15000000000003
293.15000000000003
293.15000000000003
293.15000000000003
293.15000000000003
293.15000000000003
293.15000000000003
293.15000000000003
312.6981814182484
293.15000000000003
293.15000000000003
293.15000000000003
293.15000000000003
293.15000000000003
293.15000000000003
293.15000000000003
293.15000000000003
313.1646376845766
293.15000000000003
293.15000000000003
293.15000000000003
293.15000000000003
293.15000000000003
293.15000000000003
293.15000000000003
313.2124237137469
293.15000000000003
293.15000000000003
293.15000000000003
293.15000000000003
293.15000000000003
312.8888706078033
293.15000000000003
293.15000000000003
293.15000000000003
293.15000000000003
293.15000000000003
293.15000000000003
293.15000000000003
293.15000000000003
312.60214230815114
293.15000000000003
293.15000000000003
293.15000000000003
293.15000000000003
293.15
293.15000000000003
293.15
293.15000000000003
293.15000000000003
293.15
293.15
293.15000000000003
293.15000000000003
293.15000000000003
293.15000000000003
293.15
293.15
293.15
</DataArray>
<DataArray type="Float64" Name="&#x7535;&#x52bf;" Format="ascii">
1
1
1
0.9688872919038777
1
1
0.9690375508678446
1
0.9697332784250802
0.9416827568398212
1
1
0.9687021887981312
1
0.9668772619745881
0.9415737824301839
0.953460008259465
0.969362549679733
0.9415626077002138
0.9310508359815158
0.9416456791690938
0.9042863374746387
0.8697599962386463
0.9025058513737928
0.9241843099163839
0.8698775070461073
0.9049309404124445
0.8701820890755884
0.8479322754710805
0.8699872607090928
0.829660217195858
0.8304987593324117
0.7893471862232387
0.8394144166868768
0.7891679944376423
0.8284852059524691
0.7891759750481252
0.7595939872762916
0.7889960541841392
0.7557457553597471
0.7482905876320088
0.7074710222160354
0.7527087212135788
0.7080001053642297
0.746760179124874
0.7074160704731486
0.6728576675480185
0.7079460497669319
0.6708107180279189
0.6663425531677287
0.6249300039379588
0.6685087433361872
0.6254755953957484
0.6645840936635036
0.624857749721495
0.588209572389455
0.6254135238844833
0.5863679391052479
0.5415733106833533
0.5830814065660407
0.5412805145581615
0.5840371820577057
0.5806154936669364
0.5412931721738731
0.5029053145717882
0.5410026384371104
0.4991700425466434
0.49732359308713425
0.45716976982082114
0.4571284585679286
0.49969817257780264
0.4959544279097439
0.45768521639204207
0.4184050918454307
0.4152595541161701
0.41334383585649104
0.3745068557597783
0.3744877543224421
0.4576334305841615
0.4162308938271577
0.4114282023792902
0.3748644496813172
0.3352237167177937
0.33181683991594774
0.3296207304230869
0.2921856372634775
0.292114256087451
0.3337222240116178
0.37484987922110896
0.3275351638236472
0.2926567777336733
0.2534220691591155
0.24640187808073516
0.24417457662012082
0.21111435961084085
0.21092764877608913
0.251804757477001
0.2925796925834127
0.241144220201454
0.21092819093060686
0.1716413580770123
0.16959529988902988
0.15801595151122125
0.13021154979874283
0.13012769269041355
0.17042659891691847
0.2107451607270212
0.09770949160437285
0.1533740059789288
0.07463446373732187
0.05841886570293115
0.09567927454688732
0.1300005167655481
0.05848126226041827
0.09527978060871946
0.13026295718612566
0.04672152466033046
0.07053709324139555
0.032136565150350245
0.03130121368717175
0.030320249683703563
0
0.0584857322718809
0
0.030633786788311527
0.058421395732042726
0
0
0.03124930086758682
0.030379593858724074
0
0
0
0
0
</DataArray>
</PointData>
<CellData/>
<Points>
<DataArray type="Float64" NumberOfComponents="3" Format="ascii">
0 0 0
0 0.049999999999999996 0
0 0 0.05
0.0465209127490548 0.03595164818817543 0
0 0.05 0.04999999999999999
0 0.1 0
0.04633953922698702 0.062143435427778546 0
0 0.10000000000000002 0.05
0.04506049035253525 0 0.050000096046866754
0.07692307692307694 0 0
0 0.1 0.1
0 0.049999999999999996 0.09999999999999998
0.04676871499584905 0.0641657524129671 0.1
0 0 0.1
0.04895178464444712 0.03615120850914149 0.1
0.07692307692307694 0 0.10000000000000002
0.06906082705361984 0.042840772296696035 0.050000000000000065
0.04506049035253525 0.1 0.050000096046866754
0.07692307692307701 0.1 0
0.0891698694627928 0.04953033608425066 0
0.07692307692307701 0.1 0.1
0.11651679717426298 0 0.05000040604264517
0.15384615384615385 0 0
0.11651679717426325 0.05 0.05000040604264526
0.09634443041529878 0.05469087909367743 0.1
0.15384615384615385 0 0.1
0.11651679717426305 0.1 0.05000040604264517
0.1538461538461539 0.1 0
0.17516586531834968 0.049988860427678555 0
0.1538461538461539 0.1 0.1
0.19250193950165323 0 0.05000018499389602
0.1930802826896268 0.049999999999999926 0.05004888748036061
0.2307692307692308 0 0
0.18325009744969378 0.05159886785775981 0.1
0.23076923076923078 0 0.09999999999999999
0.1936586258776009 0.1 0.050097589966825076
0.2307692307692309 0.1 0
0.2586947562530186 0.049817747867247436 0
0.2307692307692309 0.1 0.1
0.261855239604341 0.05024725057623701 0.04999999999999992
0.26926407060488716 0 0.05000070392073096
0.30769230769230776 0 0
0.26501572295566306 0.05067675328522632 0.1
0.3076923076923077 0 0.10000000000000002
0.27056434128985557 0.1 0.05004782744093799
0.30769230769230765 0.09999999999999999 0
0.3400923384469565 0.05018838162097161 0
0.30769230769230765 0.09999999999999999 0.09999999999999999
0.34213468282332377 0.050028009353177263 0.04999999999999971
0.34616390763527805 0 0.04995013602859223
0.3846153846153846 0 0
0.34417702719969057 0.04986763708538327 0.1
0.3846153846153846 0 0.1
0.34776299180596826 0.1 0.049884931966946225
0.3846153846153845 0.1 0
0.41855697082838916 0.049468959185463825 0
0.3846153846153845 0.1 0.1
0.42039505347090395 0.04989187735677378 0.05000000000000002
0.4615384615384614 0 0
0.4232375667080818 0 0.05003667398394757
0.4615384615384614 0 0.09999999999999999
0.422233136113418 0.05031479552808335 0.1
0.4253396208561231 0.1 0.050181592755356254
0.46153846153846145 0.1 0
0.4968806428119935 0.05003207873735499 0
0.46153846153846145 0.1 0.1
0.5002641163601628 0 0.04963393331257614
0.5016639273385711 0.04999999999999976 0.04980375665337739
0.5384615384615384 0 0
0.5384615384615384 0 0.1
0.4996438098937178 0.049849410186083486 0.1
0.5030637383169796 0.1 0.04997357999417907
0.5384615384615384 0.1 0
0.5748831164149337 0.050041178210306445 0
0.5778476567960056 0 0.05028436261096241
0.5795777353307788 0.04999999999999999 0.05042478523397526
0.6153846153846151 0 0
0.6153846153846151 0 0.09999999999999998
0.5384615384615384 0.1 0.1
0.5769270321057743 0.05015960953282674 0.1
0.5813078138655521 0.1 0.0505652078569879
0.6153846153846154 0.1 0
0.6525043100095995 0.04944492798618916 0
0.6556523168803434 0 0.04940297934339265
0.6575897398232259 0.04999999999999984 0.04965724102817768
0.6923076923076923 0 0
0.6923076923076923 0 0.10000000000000003
0.6538404844483351 0.0500018833153815 0.1
0.6153846153846154 0.1 0.1
0.6595271627661087 0.1 0.0499115027129629
0.6923076923076923 0.10000000000000002 0
0.7293605774691299 0.05000685627915742 0
0.7359407633036368 0 0.0485800531980023
0.7383235422255884 0.0500000000000002 0.049343050030385145
0.769230769230769 0 0
0.769230769230769 0 0.1
0.7307359293951128 0.05000070392073096 0.1
0.6923076923076921 0.09999999999999999 0.09999999999999999
0.7407063211475401 0.1 0.050106046862767144
0.7692307692307693 0.1 0
0.8063234552856541 0.049901676402818625 0
0.8069107578920004 0.049950930698357515 0.050000000000000225
0.8192964863551655 0 0.049814081023831946
0.8461538461538459 0 0.09999999999999998
0.8461538461538459 0 0
0.8074980604983466 0.05000018499389602 0.1
0.769230769230769 0.09999999999999999 0.09999999999999999
0.8834832028257364 0.050000406042644774 0.04999999999999989
0.8236711382261427 0.1 0.049783335008465414
0.9049888738921459 0 0.04827478254742825
0.9230769230769229 0 0
0.883483202825737 0.05000040604264517 0
0.8461538461538461 0.1 0
0.9230769230769229 0 0.1
0.8834832028257368 0.05000040604264517 0.1
0.846153846153846 0.1 0.1
0.9307710097961223 0.049999999999999586 0.04328896281259353
0.9092631660851117 0.1 0.05108970001405259
0.9522788535071333 0 0.035488225611134364
0.9532719620231221 0 0.06364067022977363
0.9549395096474647 0.050000096046866754 0
1 0 0
0.9230769230769229 0.09999999999999999 0
1 0 0.1
0.9549395096474647 0.050000096046866754 0.1
0.9230769230769229 0.09999999999999999 0.09999999999999999
1.0000000000000002 0 0.05
1 0.05 0.05
0.9533738657595936 0.1 0.035988295221394795
0.9544011628891113 0.1 0.06315715101533799
1.0000000000000002 0.05 0
1.0000000000000002 0.05 0.10000000000000002
1 0.1 0
1 0.1 0.1
1.0000000000000002 0.10000000000000002 0.05
</DataArray>
</Points>
<Cells>
<DataArray type="Int32" Name="connectivity" Format="ascii">
3 2 1 0
3 2 4 1
7 6 1 5
7 6 4 1
1 4 3 6
3 0 8 2
4 3 8 2
0 8 9 3
12 7 11 10
12 7 4 11
2 14 11 13
14 4 11 12
14 2 11 4
13 14 8 2
14 4 8 2
8 13 15 14
16 9 8 3
8 15 16 14
4 16 12 14
4 14 8 16
3 4 8 16
16 4 6 3
4 17 12 16
6 4 17 7
17 4 6 16
5 6 17 7
4 12 17 7
12 10 17 7
17 5 18 6
18 16 17 6
18 16 6 19
19 16 6 3
9 16 19 3
17 16 20 12
10 17 20 12
16 21 9 19
21 9 8 16
15 21 8 16
19 22 21 9
22 19 21 23
21 19 16 23
24 21 16 23
16 24 12 14
20 16 24 12
21 24 16 15
16 15 24 14
25 24 21 15
24 25 21 23
19 26 16 23
16 26 20 24
26 16 20 17
26 16 18 19
16 26 18 17
26 24 16 23
27 19 26 18
19 27 26 23
19 28 27 23
28 19 22 23
29 26 24 20
24 29 23 26
23 30 25 21
30 23 22 21
22 32 31 30
31 32 22 28
31 27 23 26
22 23 31 28
29 31 23 26
23 27 31 28
25 23 31 30
23 22 31 30
24 33 25 23
29 23 31 33
23 25 31 33
33 23 24 29
25 34 31 33
34 25 31 30
31 26 29 35
26 31 27 35
36 31 27 28
36 27 31 35
31 37 32 28
37 31 36 28
29 38 31 35
38 29 31 33
39 36 31 35
32 39 31 30
38 39 31 35
39 34 31 30
32 31 39 37
31 36 39 37
39 30 32 40
30 39 34 40
39 41 32 37
32 41 39 40
31 38 42 39
31 42 38 33
42 31 34 33
34 31 42 39
43 34 39 40
34 43 39 42
35 39 36 44
39 35 38 44
45 36 39 44
36 45 39 37
39 46 41 37
46 39 45 37
47 38 39 42
38 47 39 44
43 48 39 42
48 43 39 40
41 39 48 46
41 48 39 40
39 45 48 46
48 47 39 42
47 48 39 44
48 45 39 44
40 48 43 49
48 40 41 49
50 41 48 46
41 50 48 49
48 42 43 51
42 48 47 51
52 43 48 49
43 52 48 51
48 44 47 53
44 48 45 53
54 45 48 53
45 54 48 46
48 55 50 46
55 48 54 46
56 47 48 51
47 56 48 53
57 52 48 49
58 50 57 55
50 57 48 49
50 58 57 59
52 57 48 51
50 48 57 55
49 57 52 59
57 49 50 59
48 54 57 55
57 56 48 51
56 57 48 53
57 54 48 53
60 52 57 59
52 60 57 61
57 51 52 61
51 57 56 61
57 53 56 62
53 57 54 62
63 54 57 62
54 63 57 55
57 64 58 55
64 57 63 55
65 56 57 61
56 65 57 62
58 68 67 66
68 58 67 64
58 57 67 64
67 59 58 66
67 60 57 59
59 67 60 66
57 63 67 64
58 67 57 59
65 67 57 62
67 63 57 62
69 60 67 66
60 69 67 70
65 57 67 70
70 57 60 61
57 70 65 61
57 60 67 70
67 62 65 71
62 67 63 71
63 72 67 64
72 63 67 71
67 73 68 64
73 67 72 64
67 74 69 66
74 67 68 66
68 76 75 74
75 72 67 71
76 68 75 73
77 69 75 74
69 67 75 74
67 68 75 74
68 67 75 73
67 72 75 73
65 78 67 71
78 65 67 70
78 75 67 71
69 77 75 79
78 67 75 79
67 79 78 70
79 67 69 70
67 69 75 79
71 75 72 80
75 71 78 80
72 81 75 73
81 72 75 80
75 82 76 73
82 75 81 73
75 83 77 74
83 75 76 74
77 75 84 83
76 85 84 83
85 76 84 82
86 77 84 83
84 81 75 80
75 76 84 83
76 75 84 82
75 81 84 82
77 86 84 87
87 75 77 79
75 77 84 87
88 75 84 87
78 88 75 80
88 78 75 79
88 84 75 80
75 87 88 79
80 84 81 89
84 80 88 89
81 90 84 82
90 81 84 89
91 84 90 82
84 91 85 82
84 92 86 83
92 84 85 83
85 94 93 92
94 85 93 91
95 86 93 92
85 84 93 91
86 84 93 92
93 90 84 89
84 85 93 92
84 90 93 91
86 95 93 96
84 86 93 96
96 84 86 87
88 97 84 89
97 88 84 87
97 84 93 96
84 96 97 87
97 93 84 89
89 93 90 98
93 89 97 98
90 99 93 91
99 90 93 98
93 100 94 91
100 93 99 91
101 99 93 98
103 95 101 102
104 94 101 100
94 104 101 102
94 93 101 100
93 99 101 100
101 92 94 102
101 94 92 93
92 101 95 102
95 101 92 93
105 93 95 96
95 93 105 101
95 103 101 105
106 97 93 96
106 101 93 98
93 97 106 98
93 105 106 96
106 93 101 105
104 107 101 102
107 103 101 102
103 107 101 105
101 98 106 108
98 101 99 108
102 109 107 103
109 102 107 104
109 104 111 110
104 101 107 111
104 109 111 107
101 111 104 100
99 101 112 108
99 112 101 100
111 101 112 100
107 112 101 108
101 112 107 111
103 109 114 113
107 105 103 114
109 103 114 107
115 106 101 105
101 106 115 108
115 107 101 108
105 107 115 114
107 115 101 105
109 114 116 107
111 109 116 107
114 116 113 109
116 111 110 109
108 117 115 107
114 117 116 107
115 117 114 107
117 111 116 107
117 112 111 107
117 108 112 107
110 116 109 118
109 116 119 118
116 113 109 119
121 120 110 118
116 110 120 118
111 110 120 116
116 111 117 122
122 111 120 116
112 117 111 122
124 123 113 119
116 114 113 124
116 124 113 119
114 116 125 124
117 115 114 125
116 114 125 117
127 118 126 119
116 127 119 118
118 127 120 116
124 127 119 116
122 116 120 128
116 122 117 128
127 128 120 116
116 125 124 129
116 125 129 117
116 117 129 128
124 127 116 129
127 116 129 128
127 118 120 130
118 121 120 130
128 127 120 130
118 130 126 121
118 130 127 126
123 119 124 131
119 127 124 131
127 129 124 131
131 119 126 123
131 119 127 126
120 132 122 128
132 128 120 130
133 124 125 129
129 133 124 131
130 128 134 132
130 128 127 134
127 134 128 129
129 131 134 133
129 131 127 134
</DataArray>
<DataArray type="Int32" Name="offsets" Format="ascii">
4 8 12 16
20 24 28 32
36 40 44 48
52 56 60 64
68 72 76 80
84 88 92 96
100 104 108 112
116 120 124 128
132 136 140 144
148 152 156 160
164 168 172 176
180 184 188 192
196 200 204 208
212 216 220 224
228 232 236 240
244 248 252 256
260 264 268 272
276 280 284 288
292 296 300 304
308 312 316 320
324 328 332 336
340 344 348 352
356 360 364 368
372 376 380 384
388 392 396 400
404 408 412 416
420 424 428 432
436 440 444 448
452 456 460 464
468 472 476 480
484 488 492 496
500 504 508 512
516 520 524 528
532 536 540 544
548 552 556 560
564 568 572 576
580 584 588 592
596 600 604 608
612 616 620 624
628 632 636 640
644 648 652 656
660 664 668 672
676 680 684 688
692 696 700 704
708 712 716 720
724 728 732 736
740 744 748 752
756 760 764 768
772 776 780 784
788 792 796 800
804 808 812 816
820 824 828 832
836 840 844 848
852 856 860 864
868 872 876 880
884 888 892 896
900 904 908 912
916 920 924 928
932 936 940 944
948 952 956 960
964 968 972 976
980 984 988 992
996 1000 1004 1008
1012 1016 1020 1024
1028 1032 1036 1040
1044 1048 1052 1056
1060 1064 1068 1072
1076 1080 1084 1088
1092 1096 1100 1104
1108 1112 1116 1120
1124 1128 1132 1136
1140 1144 1148 1152
1156 1160 1164 1168
1172 1176 1180 1184
1188 1192 1196 1200
1204 1208 1212 1216
1220 1224 1228 1232
1236 1240 1244 1248
1252 1256 1260 1264
1268 1272 1276 1280
1284 1288 1292 1296
1300 1304 1308 1312
1316 1320 1324 1328
1332 1336 1340 1344
1348 1352 1356 1360
1364 1368 1372 1376
1380 1384 1388 1392
</DataArray>
<DataArray type="UInt8" Name="types" Format="ascii">
10 10 10 10 10 10 10 10 10 10 10 10 10 10 10 10
10 10 10 10 10 10 10 10 10 10 10 10 10 10 10 10
10 10 10 10 10 10 10 10 10 10 10 10 10 10 10 10
10 10 10 10 10 10 10 10 10 10 10 10 10 10 10 10
10 10 10 10 10 10 10 10 10 10 10 10 10 10 10 10
10 10 10 10 10 10 10 10 10 10 10 10 10 10 10 10
10 10 10 10 10 10 10 10 10 10 10 10 10 10 10 10
10 10 10 10 10 10 10 10 10 10 10 10 10 10 10 10
10 10 10 10 10 10 10 10 10 10 10 10 10 10 10 10
10 10 10 10 10 10 10 10 10 10 10 10 10 10 10 10
10 10 10 10 10 10 10 10 10 10 10 10 10 10 10 10
10 10 10 10 10 10 10 10 10 10 10 10 10 10 10 10
10 10 10 10 10 10 10 10 10 10 10 10 10 10 10 10
10 10 10 10 10 10 10 10 10 10 10 10 10 10 10 10
10 10 10 10 10 10 10 10 10 10 10 10 10 10 10 10
10 10 10 10 10 10 10 10 10 10 10 10 10 10 10 10
10 10 10 10 10 10 10 10 10 10 10 10 10 10 10 10
10 10 10 10 10 10 10 10 10 10 10 10 10 10 10 10
10 10 10 10 10 10 10 10 10 10 10 10 10 10 10 10
10 10 10 10 10 10 10 10 10 10 10 10 10 10 10 10
10 10 10 10 10 10 10 10 10 10 10 10 10 10 10 10
10 10 10 10 10 10 10 10 10 10 10 10
</DataArray>
</Cells>
</Piece>
</UnstructuredGrid>
</VTKFile>
