<?xml version="1.0" encoding="UTF-8"?>
<VTKFile type="UnstructuredGrid" version="0.1" byte_order="LittleEndian">
<UnstructuredGrid>
<Piece NumberOfPoints="834" NumberOfCells="3309">
<PointData>
<DataArray type="Float64" Name="&#x6e29;&#x5ea6;" Format="ascii">
293.15000000000003
293.15000000000003
293.15000000000003
293.15
293.15000000000003
293.15000000000003
293.15000000000003
293.15000000000003
332.2901173482303
293.15000000000003
293.15000000000003
293.15
293.15000000000003
320.4149453576534
349.0676626713915
293.15
293.15
293.15
293.15000000000003
293.15
293.15000000000003
293.15000000000003
293.15000000000003
293.15000000000003
293.15000000000003
345.0902857407161
293.15000000000003
293.15000000000003
293.15000000000003
345.44743397310475
343.6833020024767
293.15
322.204825745078
293.15000000000003
293.15000000000003
359.0417879411088
293.1499999999999
293.15000000000003
366.83915444507073
293.15000000000003
293.15000000000003
336.2494266814011
293.15000000000003
293.15
293.15000000000003
293.15
347.3070846535162
293.15
293.15000000000003
293.15000000000003
293.15000000000003
336.4552360713758
335.9068714198623
293.15000000000003
293.15000000000003
359.2608602118453
293.15000000000003
336.4480606205088
353.1952937872774
377.4230868567545
367.1127488865662
293.15
373.26318138579876
293.15000000000003
293.15000000000003
293.15000000000003
343.9063437995537
293.15000000000003
367.8154508388797
293.15000000000003
293.15000000000003
293.15000000000003
293.15000000000003
361.2074671583351
293.14999999999986
365.7665517175838
293.15000000000003
293.15000000000003
293.15000000000003
342.8584786104186
293.15
293.1499999999999
371.4739288112659
355.9617484782991
293.15000000000003
355.8717416705333
375.0787927113009
374.09597552231014
293.15000000000003
293.15000000000003
293.15000000000003
293.15000000000003
357.74968658168905
293.15000000000003
372.775365758215
293.15000000000003
293.15000000000003
356.21257233086453
293.15
373.447019701579
293.15000000000003
293.15000000000003
293.15000000000003
293.15000000000003
293.15000000000003
293.15000000000003
363.2708827442512
355.21241427987184
293.15000000000003
343.9939752380867
293.15000000000003
370.00303477478815
368.6067124149706
359.41960100984886
375.59223407548353
380.36492159815447
293.15
293.15000000000003
293.15000000000003
370.8952542070682
293.15000000000003
293.15000000000003
371.23730445266034
293.15000000000003
293.15000000000003
293.15000000000003
293.15000000000003
293.15000000000003
356.78290355880665
293.15000000000003
370.24327903721525
293.15000000000003
293.15000000000003
349.2626764104224
293.15000000000003
354.8873871137815
357.1333464538803
293.15000000000003
370.7913180551393
355.35435388348736
293.15000000000003
372.71738524704307
293.15000000000003
375.2936047473579
293.15000000000003
293.1499999999999
293.15000000000003
293.15000000000003
378.18110022337163
293.15000000000003
293.15000000000003
293.15000000000003
293.15000000000003
293.15000000000003
371.3084143149388
293.1499999999999
293.15
293.15000000000003
375.1972460469685
293.15000000000003
344.4939470980555
293.15000000000003
372.3216383885174
370.7777715826662
293.15000000000003
293.15000000000003
372.26450885396093
293.15000000000003
374.74617547990516
354.377142843403
293.15000000000003
293.15000000000003
375.51123413361614
293.15000000000003
293.15000000000003
376.22003928381474
293.15000000000003
293.15
293.15000000000003
293.15000000000003
293.15000000000003
344.7858825794402
293.15000000000003
371.01826328154925
344.77768356000155
293.15000000000003
374.4014326758359
293.15000000000003
293.15000000000003
293.1499999999999
293.15000000000003
370.48519295459323
293.15000000000003
293.15000000000003
372.6680652113527
293.15000000000003
371.13677951486346
293.15000000000003
293.15000000000003
293.15000000000003
375.9638009524869
293.15
293.15000000000003
293.15000000000003
293.15000000000003
293.15000000000003
371.22457595374794
293.15000000000003
374.6438943254154
370.59556265336954
293.15000000000003
293.15000000000003
293.15000000000003
369.4024926655918
375.06362980086857
371.2443843091714
293.15000000000003
293.15000000000003
293.15000000000003
293.15000000000003
293.15
376.017832019581
293.15000000000003
345.179107945215
293.15000000000003
293.15000000000003
371.0738361749136
293.15000000000003
293.15000000000003
293.15000000000003
293.15000000000003
293.15000000000003
358.00758968536525
372.6105166760092
293.1499999999999
293.15000000000003
375.8589507900816
370.28043420165346
293.15000000000003
373.2671320608117
293.15000000000003
375.51936399374796
293.15000000000003
293.1499999999999
293.15000000000003
293.15000000000003
293.15
371.2218128001551
293.15000000000003
293.15000000000003
293.15000000000003
293.15000000000003
376.46333984133685
293.15000000000003
293.15000000000003
293.15000000000003
353.3591385490406
376.8319792666626
354.16507015221373
293.15000000000003
293.15000000000003
370.59039398812456
293.15000000000003
375.8315830896947
293.15000000000003
375.9566714488946
293.15000000000003
375.28308210088204
354.42384295908056
293.15000000000003
293.15000000000003
344.1093630545463
293.15000000000003
369.42128188585224
293.15000000000003
293.15000000000003
293.15000000000003
387.31502592812814
293.15
293.15000000000003
373.6347857599387
342.6278034468494
293.15000000000003
293.15
293.15000000000003
373.3278776195702
354.1605864314079
293.15000000000003
372.4935195534745
293.15000000000003
293.15
375.84977254516184
293.15
367.0466443661665
293.15000000000003
293.15000000000003
372.94864133535253
293.15000000000003
293.15000000000003
361.3401741894158
293.15000000000003
293.15000000000003
293.15
293.15000000000003
293.15000000000003
370.2167594723623
374.2721736723777
293.15000000000003
293.15000000000003
293.15000000000003
361.21024418518596
370.1113275173076
369.67941563116256
293.15000000000003
366.5845264279151
293.15000000000003
375.41617074197103
293.15000000000003
370.4247135274945
293.15000000000003
293.15000000000003
353.5694112396933
293.15000000000003
293.15000000000003
293.15000000000003
345.3457298469001
293.15
293.15000000000003
293.15000000000003
293.15000000000003
293.15000000000003
293.15000000000003
372.7587172805814
293.15000000000003
293.15000000000003
379.2837002126678
357.3975090722834
378.2866845944475
293.15000000000003
374.3244065320707
293.15000000000003
374.55838417834303
293.15
293.15000000000003
343.5834137518725
293.15000000000003
328.7637023681822
293.15000000000003
293.15000000000003
366.62611815799323
374.37661538592806
371.824672979297
293.15
373.06132705373585
293.15
370.6053235589222
293.15000000000003
293.15000000000003
293.15000000000003
293.15000000000003
367.00454859702245
342.76426321548763
293.15000000000003
372.8164796267931
293.15000000000003
293.15000000000003
357.76814620973505
293.15000000000003
293.15000000000003
371.99375458034126
358.59047447201834
293.15
293.15000000000003
368.63232706207515
380.27519584245033
354.51409476881963
293.15
293.15000000000003
368.29578306788085
293.15000000000003
365.2502392655397
293.15000000000003
293.15
350.5336951921427
293.15000000000003
293.15000000000003
293.15
293.15000000000003
355.48575042804174
293.15000000000003
374.58829608685363
293.15000000000003
367.0364677959678
293.15000000000003
293.15000000000003
370.6701000578742
293.15000000000003
358.0268854597404
365.26666067098716
293.15000000000003
293.15000000000003
293.15000000000003
373.1343129007074
293.15000000000003
293.15000000000003
339.27017635545684
293.15000000000003
366.0785037308214
293.15000000000003
293.15000000000003
375.2094874616099
375.0145453310907
293.15000000000003
293.15
293.15000000000003
364.8224964172857
293.15000000000003
293.15000000000003
354.87176896287815
293.15000000000003
370.8996700467896
341.14757761297085
373.6479694511308
293.15000000000003
293.15000000000003
357.47198995093987
293.15000000000003
354.618430984178
293.15000000000003
339.20054079985925
293.15000000000003
293.15000000000003
293.15000000000003
375.8523888601178
357.1675373993478
293.15000000000003
373.10992486017864
293.15000000000003
293.15000000000003
355.70700283384235
293.15000000000003
354.1854650555967
293.15000000000003
293.15000000000003
293.15000000000003
293.15
293.15000000000003
374.833619812829
357.6633632828778
293.15000000000003
293.15000000000003
359.61777713265775
293.15000000000003
368.7746503647338
293.15000000000003
293.15000000000003
293.15000000000003
293.15000000000003
381.78761772018703
356.24153947305217
293.15000000000003
375.8682115411435
293.15000000000003
293.15000000000003
293.15000000000003
357.00407835677044
293.15000000000003
293.15000000000003
293.15000000000003
293.15000000000003
293.15000000000003
356.33699989573785
336.4122372174858
293.15000000000003
293.15000000000003
358.6555813086858
293.15000000000003
293.15000000000003
354.1105048353402
293.15000000000003
293.15000000000003
293.15000000000003
293.15000000000003
387.6800315211829
360.6655072584629
293.15000000000003
371.49832239477587
293.15000000000003
367.2881512462843
293.15000000000003
377.4132573847049
293.15
293.15000000000003
365.1475641292672
361.19451462777846
293.15000000000003
293.15000000000003
293.15000000000003
358.4138687836302
365.0613070264462
293.15000000000003
293.15000000000003
293.15000000000003
378.49935220378507
352.18075417515615
293.15000000000003
293.15000000000003
293.15000000000003
293.15000000000003
368.38627101013475
293.15000000000003
374.6855656806822
293.15
356.8870674833727
293.15000000000003
324.6313006000245
293.15000000000003
339.76469877264395
293.15000000000003
293.15000000000003
293.15000000000003
376.6895000446339
293.1499999999999
377.7407591339036
293.15000000000003
293.15000000000003
370.1119760033514
293.15
293.15000000000003
369.76640132665585
371.0948981369549
293.15000000000003
293.15000000000003
293.15000000000003
293.15000000000003
293.15000000000003
371.0182736051252
293.15000000000003
364.9769643866032
293.15000000000003
293.15000000000003
293.15000000000003
293.15000000000003
293.15000000000003
360.6116479214197
376.45068598239254
293.15
327.5068865676746
293.15000000000003
366.80896380429294
293.15000000000003
375.47116670021325
355.67934341786633
293.15000000000003
293.15000000000003
378.0440612946731
375.62561131313964
293.15000000000003
354.5360359306276
293.15000000000003
293.15000000000003
293.15000000000003
360.0052367183382
293.15000000000003
356.31816673863256
293.15000000000003
380.657512602881
293.15000000000003
293.15000000000003
293.15000000000003
293.15000000000003
293.15000000000003
293.15000000000003
293.15000000000003
293.15000000000003
356.34084478034225
293.15000000000003
354.5804330992832
356.1307848602573
293.15000000000003
293.15000000000003
293.15000000000003
293.15000000000003
377.1920609111258
357.1903018200667
293.15000000000003
372.22183694780864
375.49721669968073
293.15000000000003
356.52720840767137
293.15000000000003
376.958921412656
293.15000000000003
293.15000000000003
293.15000000000003
293.15
293.15000000000003
293.15000000000003
293.15000000000003
293.15000000000003
293.15000000000003
354.8515682916189
293.15000000000003
293.15000000000003
355.59482269789174
293.15000000000003
376.28215415707257
356.68719714254553
293.15000000000003
369.48031712533907
293.15000000000003
372.17825346616877
375.77594898186703
293.15000000000003
358.1188946446353
293.15000000000003
375.44864896515713
293.15000000000003
293.15000000000003
293.15000000000003
293.15000000000003
293.15000000000003
293.15000000000003
374.4965693778538
293.15000000000003
369.9708033861626
357.54460933103996
293.15000000000003
293.15000000000003
369.86355472830354
293.15000000000003
293.15000000000003
293.15000000000003
293.15000000000003
375.5009609500757
346.1889767497168
293.15000000000003
345.3336634402965
293.15000000000003
293.15000000000003
293.15000000000003
370.6287378020864
293.15000000000003
370.33170716161936
359.94954930412655
293.15000000000003
374.0594333958133
293.15000000000003
293.15000000000003
293.15000000000003
353.49474799645384
293.15000000000003
293.15
293.15000000000003
375.83626408931735
375.6173935170653
293.15000000000003
293.15000000000003
357.2090162938938
293.15000000000003
372.31903539549944
293.15000000000003
293.15000000000003
293.15000000000003
360.13125463930396
293.15000000000003
293.15000000000003
293.15000000000003
370.4012403439793
293.15000000000003
293.15000000000003
376.17454559204975
293.15000000000003
293.15000000000003
293.15000000000003
293.15000000000003
293.15000000000003
293.15000000000003
328.28208062554125
293.15
375.99586680106404
293.1499999999999
371.10173619207603
372.28590284743836
293.15000000000003
368.34832764655044
293.15
293.15000000000003
378.3577057723735
293.15000000000003
355.68835898640395
293.15000000000003
293.15000000000003
371.7431575673338
352.49407985861205
293.15000000000003
293.15000000000003
293.15000000000003
293.15000000000003
293.15000000000003
374.36945558694146
357.09076159316476
367.80740453862455
337.4455014160933
293.15000000000003
293.15000000000003
334.50931176546123
293.15
293.15000000000003
293.15000000000003
332.64045038198844
362.74833062565443
293.15000000000003
293.15
352.267121793684
293.15000000000003
293.15
293.15000000000003
293.15000000000003
352.40251544795143
365.6091379570705
293.15000000000003
361.7005689079913
339.69898216258383
293.15000000000003
293.15000000000003
351.4814111765845
293.15000000000003
366.9316599713427
293.15
370.3367419156737
293.15000000000003
293.15
293.15000000000003
370.7187716113915
293.15000000000003
293.15000000000003
338.27077180512856
293.15000000000003
348.04474915403586
358.8105017630168
293.15
293.15000000000003
293.15
293.15000000000003
293.15
348.756742156652
341.01429173603805
293.15000000000003
293.15000000000003
334.20136709493084
293.15000000000003
293.15000000000003
293.15
293.15000000000003
293.15000000000003
293.15
378.54365633917337
293.15000000000003
293.1499999999999
364.785068747992
354.45213444874304
293.15000000000003
293.15000000000003
293.15000000000003
349.64429452169975
346.80171088402244
366.2894548345723
293.1499999999999
293.15000000000003
293.15
339.9802219169416
293.15000000000003
293.15000000000003
293.15000000000003
293.1499999999999
335.48500293674283
293.15000000000003
367.12872451968656
293.15000000000003
293.15000000000003
293.15000000000003
293.15000000000003
293.15000000000003
293.15000000000003
293.15000000000003
293.15
372.97733773475846
367.7671403993611
384.1783686722356
391.7379175421613
389.55502766609544
390.34082928566573
381.92624858950035
387.42325082853523
398.7278121076365
399.03814015252647
403.2259974395873
399.77663014452145
401.35053535480387
398.4115309339025
394.288663410215
401.3366628572058
400.72455636160356
399.8464976575385
400.1756100860379
400.8745851488433
400.143595503217
374.61335185388987
399.91116956756673
395.44098111227873
383.61968033942384
390.26255952275704
397.79642058651757
401.08009001061316
401.55422076422894
380.63018148915586
400.05485249416665
375.1289905335298
372.1933093237182
397.89358543061303
397.1219736399428
382.8353450683418
389.72679267965526
390.6549555273651
393.6932307303741
399.3427253752671
399.3171112107555
400.8768932378758
398.3481377550111
382.8991030809958
396.4798458382922
386.9139619373103
373.78437781273266
</DataArray>
<DataArray type="Float64" Name="&#x7535;&#x52bf;" Format="ascii">
0
0
0.024558070113906757
0
0
0.02398769500958686
0.034482758620689835
0
0.018029005718192877
0
0
0
0.023313823562205568
0.02538793669622674
0.020968771131324556
0
0
0
0.023498443107605405
0
0
0.02327230588269513
0
0.03448275862068983
0
0.023707205711972597
0
0
0.028838847917490914
0.032962618636117824
0.04348685622346093
0.05237995917638294
0.013263364976846326
0
0
0.03274817989035006
0.02915735380223338
0.05275058198276349
0.048649827263212854
0.06896551724137945
0.023558817518051667
0.04602248176033541
0.0344827586206895
0.052562314920644664
0.024630381815206603
0
0.032604924072671786
0.02883714800887804
0.052252666245944046
0.0524142026226414
0.06896551724137945
0.03795788655069687
0.026853273452154595
0.024360982666462916
0.06546367013119458
0.060221917281001895
0.08608806716717277
0.07650492800352704
0.06680415685258183
0.06345955905444187
0.08498157584623511
0.02934625419541248
0.06701755373000653
0.06569166820966132
0.08620924443679479
0.10344827586206905
0.07550085442329957
0.054003277417136605
0.05911075942904082
0.06896551724137923
0.08630070267464261
0.0522085673894207
0.0344827586206895
0.06814464357396942
0.06559862363346439
0.04000966774830838
0.08621380962153591
0.08620569915447185
0.10344827586206906
0.06491766601408422
0.05289128058524139
0.10205420466456383
0.0961843514067025
0.10737069583116719
0.12088468880436627
0.10738712696717005
0.09316879624485012
0.09298902300938591
0.06569596438603154
0.10246250796440248
0.12085154649423198
0.13793103448275867
0.10764367449538702
0.0866340244956122
0.09636437339202392
0.10344827586206894
0.12040299439650169
0.11916255897096728
0.08608554792469099
0.07239162609142953
0.06896551724137921
0.10210296149347409
0.12078593255108783
0.1204095637776774
0.13793103448275865
0.08629506005202424
0.08328715022291917
0.10738430565586081
0.13681922311622483
0.14423052948254095
0.15528185563454697
0.13456606650736444
0.15630098342593002
0.13713966967281221
0.12865332449516187
0.12608211505231282
0.10235140713345198
0.13789239890692212
0.1557247851593892
0.1528181813898632
0.17241379310344837
0.12121659352734777
0.12485174306527164
0.13793103448275845
0.1550178254238866
0.12071328932649898
0.10344827586206895
0.13668513933512338
0.14212850672352847
0.15548896073439786
0.15893985394287538
0.15505823899506063
0.1724137931034484
0.16569624686551748
0.12078696054791947
0.11942278671273109
0.14199111654678423
0.17210218594330587
0.17631626667970093
0.17698303828456433
0.18940654557042255
0.15441360599590137
0.13751003025706016
0.1757512011622224
0.1730176115023566
0.19027933601939886
0.2068965517241381
0.15560368895189478
0.14205981163515624
0.17241379310344815
0.1894790663211041
0.15536567866676365
0.13793103448275845
0.1717958831449209
0.17255139274835785
0.19016598823474118
0.18950886249443546
0.2068965517241381
0.18053034741609608
0.15550868183387134
0.16601939516474296
0.20648809669278242
0.20258615881368172
0.20691494834395505
0.22384089736349816
0.1728158759093494
0.1766731116627226
0.20745068922130253
0.1986842209345815
0.2255369318828127
0.2247146977864267
0.24137931034482749
0.22232964559559176
0.19025864447079452
0.20689655172413776
0.22635916597919914
0.22403558168679896
0.18964913635108707
0.17241379310344815
0.2239172279439758
0.24137931034482749
0.2348567848954112
0.2062165538062713
0.20311371112973708
0.2140060638623665
0.22489841659499646
0.2152836920865386
0.18992669215597677
0.24115845940871936
0.25857331331288097
0.2075432013248927
0.20713876126139139
0.24181796736848774
0.2589747507870404
0.245975070256602
0.2758620689655173
0.24187880596326303
0.22464971470098846
0.2594067815597195
0.2413793103448276
0.25013217314471675
0.2584477661292627
0.2584316469476757
0.27586206896551735
0.22437148105624075
0.20689655172413776
0.24567798810402353
0.24122380306333066
0.2333652694213114
0.24134681752943535
0.2245456220798623
0.2759135159226274
0.29266455380960366
0.2761145152385663
0.2845838978063598
0.2721316774573526
0.24237970847581677
0.2764463608317503
0.2932131495600615
0.3103448275862069
0.2589919171631579
0.2678169940829545
0.2940318052188816
0.2828238353252844
0.27586206896551707
0.2929049543218241
0.2758429633188841
0.29305762463933493
0.3103448275862069
0.27549402321635613
0.2583428046920643
0.2413793103448276
0.30593738963458156
0.27165550864965504
0.2588485963122445
0.31038178300077235
0.30225024506129045
0.3101104722752987
0.32696666486050485
0.32530516478714433
0.2766347153592482
0.2915088894510107
0.3112462104324882
0.3278762418047221
0.34482758620689674
0.2935159931932159
0.32845871029943485
0.31079735562079497
0.3103448275862066
0.32749761120311194
0.3275052416428355
0.34482758620689663
0.29531266679849727
0.3100621985484341
0.29282757152460326
0.27586206896551707
0.3404998572989903
0.31896982494733916
0.2942659148095104
0.29321916282052324
0.34447082466665646
0.34064292442321364
0.36197535688759663
0.33681502417977077
0.31143174469079365
0.3643898657820816
0.3458463406478058
0.36055761250483953
0.36378588093604053
0.3631818960899994
0.37931034482758624
0.35196532151542903
0.3283404315514976
0.34113749360014717
0.36279314943071045
0.3448275862068963
0.3620298896506408
0.35248334387264707
0.36198380003111735
0.3793103448275863
0.3405768219632124
0.37498047092422054
0.3446853702045857
0.32752226927105915
0.3103448275862066
0.36405006667710343
0.3450621718440852
0.3279672325279663
0.3152007848190665
0.3791416436014031
0.39624019550521994
0.38813680714094956
0.3454599630205237
0.3798567419944599
0.38046359451886685
0.39668681263411837
0.3843002008299081
0.41379310344827613
0.36293821937679466
0.3779879465241117
0.39732964606186744
0.37931034482758624
0.3964944222747419
0.39639184527702837
0.4137931034482761
0.38744426804092735
0.3576060271853423
0.37892133520630006
0.36188124431315766
0.3448275862068963
0.40974938356524876
0.413678285416515
0.37788602881281835
0.36221390473846554
0.3606192237673674
0.4138897763548461
0.42242725095542427
0.4310932354591252
0.4099194258990256
0.37981171930049984
0.4144506293698
0.43012987454272117
0.43136195998954824
0.4482758620689659
0.3970480921303597
0.41201701259408907
0.4317424874290338
0.41379310344827575
0.43095822789903987
0.4308297624450477
0.4482758620689659
0.41307687088866335
0.40923254665845715
0.39628360667521173
0.37931034482758624
0.4303502354738012
0.4479827474499399
0.42868070750501047
0.39677113673716163
0.40574240563758773
0.4478366265483163
0.4459313733363511
0.4656418783121514
0.4140928245636892
0.4202405053185451
0.44917905141715164
0.47630953007775206
0.46605275665526513
0.4827586206896553
0.46072929323510087
0.4663563358046599
0.4486274387437152
0.43149224739977643
0.4268523493646123
0.46620256181876923
0.47033243981338324
0.44827586206896525
0.46545052867138376
0.46529301114712524
0.4827586206896553
0.4481288683515638
0.4782572400678468
0.44823683137054293
0.47191102692296905
0.4312236060707961
0.41379310344827575
0.44827665383575865
0.4312484639786334
0.48214979100089284
0.4912214689885682
0.48718086110198533
0.49985375770788393
0.44908248169922066
0.4483164763009739
0.4269859330578184
0.4657583328078179
0.48336020402044766
0.5002937475306715
0.4911765270550605
0.5172413793103452
0.49559061502863316
0.4661123500984328
0.5006395587616063
0.4838574043679394
0.48275862068965475
0.4999015315125647
0.4998657441646983
0.5172413793103452
0.5169328125429028
0.4830426031631843
0.4956931854943742
0.46548379133769685
0.4740125989011344
0.4482758620689653
0.46566822704594474
0.4698464822157859
0.5164918529981917
0.5177329615780288
0.5173677788592065
0.5344414584966984
0.48293302192825044
0.5180981442968519
0.5188560274866755
0.5517241379310348
0.5347600523094257
0.5264196102173121
0.5006486816994221
0.5075497543477249
0.5352078307709813
0.5172413793103446
0.5436702572286675
0.5356536399861102
0.5344906535318527
0.5343612303213601
0.5517241379310348
0.5173737720876137
0.5173867782415947
0.49970257498252396
0.5174667315725852
0.48275862068965475
0.49140617179039187
0.5088658704763434
0.5432736278673675
0.5002115697966235
0.5515114720152028
0.5540179366087711
0.568512249466857
0.5661076960591647
0.5175020999412194
0.5261273620272144
0.5862068965517243
0.5691734000613217
0.5524587144468072
0.5735944147208442
0.5544509393594143
0.5353074639979837
0.5407255522491777
0.5698172459821557
0.5517241379310341
0.5539395011130134
0.5689522435696251
0.5663276931105486
0.5687612680079815
0.5862068965517243
0.551665455724206
0.5337887029574119
0.5172413793103444
0.5733883486941737
0.5540881705880092
0.5347879924818437
0.5863284610872991
0.5835282688694877
0.6028586008891549
0.5949628048410657
0.6037127253072366
0.620689655172414
0.5522496831877229
0.5870217858449498
0.5962307975364212
0.5909921260187319
0.5696433805146494
0.5780154293803664
0.603968822657098
0.5862068965517241
0.6034161202583703
0.5884022344762719
0.620689655172414
0.6032965670407477
0.5858420367750543
0.5685573202628377
0.5517241379310341
0.6207620706301905
0.5903592272305587
0.569416585210729
0.620696894832535
0.6199974308284446
0.6376816317896467
0.6376588773770482
0.6216652031684284
0.6211807120974954
0.638090921494287
0.6551724137931038
0.5868867643415887
0.5918043331047843
0.6148738532209248
0.6041987511382622
0.5996041355806464
0.6381647191736689
0.6449313165367541
0.6206896551724137
0.6406888741731437
0.6378733172826812
0.6551724137931038
0.6208272464278456
0.6055932368292022
0.6205405653010702
0.6031294266156328
0.5862068965517241
0.6552407659049903
0.6121611341982797
0.6036120928270055
0.655178688558655
0.6721925062982496
0.6682238301947494
0.6551504891770752
0.6723768720540805
0.6556217018811824
0.6726861379096691
0.6896551724137935
0.6211928417809265
0.6217178301233445
0.6684140066831143
0.6386045079888432
0.6514854005145558
0.6729723474843076
0.6618167667038544
0.6551724137931033
0.6760354748024344
0.6896551724137935
0.6723196583935273
0.6550872696016878
0.6553570608010303
0.637812987030122
0.6337590974996548
0.6206896551724136
0.6381421071899246
0.6468844795951489
0.7066637817865716
0.6895305511368733
0.6915652190600619
0.6833161797582069
0.7066513369266927
0.6896783698796319
0.7072785580967382
0.724137931034483
0.6560750154420901
0.6896767266797673
0.6728745896356354
0.6695330234810339
0.7077703331243296
0.6896551724137929
0.724137931034483
0.706957652982777
0.6891161088577055
0.6912164006622595
0.673213093168163
0.6726486253877374
0.6617856946748991
0.6551724137931033
0.6899134715182421
0.672840105043001
0.7155071124592284
0.7263796927726213
0.741286413636355
0.7240843638978954
0.7145036738496929
0.7149997287922666
0.7411696017586714
0.726459404531793
0.7244924779753298
0.7586206896551725
0.7418700156822845
0.6899776326274037
0.6902722713995965
0.7278221142193328
0.7073532241516317
0.7139619768583595
0.7420995847318556
0.7241379310344827
0.7586206896551725
0.7414561474456302
0.7238359072697109
0.7071903137275796
0.6896551724137929
0.7759020451150823
0.7607871076060789
0.7584273306034545
0.7388212195062167
0.7265708505711399
0.707402822010967
0.7931034482758621
0.7751155303812512
0.7767083190614299
0.7458017325624658
0.7627162909349141
0.7591157682646158
0.7768770398816734
0.7503170514885761
0.7246894182186717
0.7634776312433545
0.7421971524644689
0.7459513874147017
0.7766667704806792
0.7586206896551725
0.7931784943883062
0.8105010043340166
0.8097923193127121
0.8275862068965517
0.7757724826496926
0.7931034482758621
0.7585429676709375
0.7387590179100075
0.7413317442532122
0.7241379310344827
0.7888936944361135
0.8103453544071774
0.7673422963363802
0.7610077354463781
0.7415857233408273
0.792966972157267
0.7936818910567435
0.7849117580292834
0.8104479909416997
0.7589213807944489
0.7981177445245241
0.7766382109981332
0.7675315028981359
0.8112148425774924
0.793103448275862
0.8277764479366264
0.8449148693645642
0.8441059098037672
0.8620689655172413
0.819597278050915
0.8281513301692504
0.8236868629937709
0.8365964522936123
0.8447744082490635
0.8275862068965517
0.8279290097261315
0.8102513950173104
0.7931674817390301
0.7760640834780544
0.7586206896551725
0.8018853437571454
0.7868826863418937
0.776365138709431
0.8347527157837364
0.8455788631095897
0.8275862068965517
0.7935172346543203
0.7977012892057328
0.8111537302742841
0.8239265684578839
0.8581867987651993
0.8781787778248652
0.8430579042456652
0.862769471225319
0.8795595454014767
0.8643081136403621
0.8773213071581653
0.8965517241379313
0.9137949491730404
0.8974047912865809
0.8549103893427239
0.8764638364914642
0.8447807149861889
0.8620689655172414
0.8581197215760109
0.8794432105984041
0.8365708637787769
0.8276290625124668
0.8102177973643362
0.793103448275862
0.8234162252312475
0.8104627853404266
0.879670579746246
0.8620689655172412
0.8628229721481864
0.8456417147383898
0.8282558588648522
0.843119598689717
0.8991910864959269
0.9137406903188894
0.9310344827586209
0.9474274061541397
0.9475041609545426
0.9655172413793104
0.9282392712761124
0.9349633778037649
0.8714587281658337
0.9337992745878592
0.8980172836402043
0.9069399065827567
0.9137794833274852
0.8947752288395612
0.9140997528766781
0.8965517241379308
0.925444059793605
0.8965517241379309
0.8925877636427525
0.8794080213532881
0.8627879439833036
0.8773971175717495
0.8438705153063937
0.84462143192307
0.8275862068965516
0.8449471067053492
0.8801332792512865
0.8642437204874606
0.8903593711831966
0.863225095994103
0.9157899334228646
0.9233837261408729
0.9475700960064336
0.9310344827586207
0.9671346015934268
0.9706951692626773
0.9749724761013319
1
0.9561635615183764
0.9477635512385976
0.9763661705159152
1
0.9335625832055249
0.9477309565145967
0.9710397968736154
1
1
0.9503008962308005
0.9320225589426833
0.9137167991196725
0.9071623583100046
0.9239653454368124
0.9310344827586208
0.9143681076680998
0.9147680723703997
0.8975135857981172
0.8622064715007451
0.8789002779564048
0.8939364784906562
0.8620689655172412
0.8796099533218554
0.8991507691700064
0.9111832175421133
0.9764309093931834
0.9655172413793104
0.9573438459157099
0.9473534816650951
0.932987968954261
0.9673342101663246
1
1
1
0.976294707525964
1
0.9756156831943058
0.9528333656540371
0.9655172413793104
0.976485997594122
0.9751504481154003
1
0.9478485553356358
1
0.9765282070122652
1
1
0.9233875681357152
0.9339533789658377
0.9348942407893615
0.9321617886072847
0.9185760238389343
0.9136853598799048
0.8965517241379308
0.9137644795421537
0.9533368462799117
0.9802987677711318
0.9460954449526527
0.9708177451015544
1
1
0.9787416309895856
0.971073658405737
1
1
0.9474344094637339
0.9713342475946879
0.9475391059231287
0.9320070639010304
0.9310344827586207
0.9764553123505101
1
0.9755594166159894
1
1
0.9655172413793104
1
0.04193754226264867
0.04885336741983193
0.05679592567893986
0.08242479269266444
0.11791097160271312
0.11805861287754221
0.15038041971291322
0.17603373392096164