<?xml version="1.0" encoding="UTF-8"?>
<VTKFile type="UnstructuredGrid" version="0.1" byte_order="LittleEndian">
<UnstructuredGrid>
<Piece NumberOfPoints="3969" NumberOfCells="19643">
<PointData>
<DataArray type="Float64" Name="&#x6e29;&#x5ea6;" Format="ascii">
293.15000000000003
293.15000000000003
300.93857872008624
293.15000000000003
293.15000000000003
299.70579886784253
293.15
299.13719533799474
302.4271771766087
293.15000000000003
300.03473873918205
293.15000000000003
298.64174189294056
293.15000000000003
293.15000000000003
298.1803098610261
293.15000000000003
293.15000000000003
299.1266240269405
293.15000000000003
299.08979089172783
298.216826983774
293.15000000000003
297.3873770449457
293.15000000000003
293.15000000000003
298.45939097342483
293.15000000000003
298.99247902739074
293.15000000000003
293.15000000000003
301.58970463733925
302.1748972586102
300.29336526726377
301.4316147929504
293.1499999999999
297.68847600661405
293.15000000000003
299.990538509323
293.15000000000003
300.27668765203595
298.66207067668887
293.15000000000003
306.2803496762665
303.2520203033949
305.43106952761985
307.1208885377444
307.1269843852489
302.97653868183596
293.15000000000003
293.15
299.89091725222085
293.15
299.2324938636338
293.15000000000003
299.9575987546968
298.5239896715067
298.3795400903357
293.15000000000003
293.15
298.37471315878435
299.7346348232941
293.15000000000003
293.15000000000003
302.5365925852629
299.82352123846124
302.42270308307127
302.56628460196197
301.54800912992675
311.4579196616807
299.9483027951668
299.1336821089963
299.9638078336064
293.15000000000003
293.1499999999999
293.15
301.38135441503977
299.09424369574396
293.15000000000003
293.15
293.15000000000003
299.52535053629316
299.52459608002755
297.1024312413777
293.15
293.15
293.15000000000003
299.1941249734029
302.4236868133143
313.53010536406697
304.74333805227985
307.25302805209157
308.0503571817162
307.43255295311513
307.155197311454
308.9082083311595
311.1811752054118
310.7339068177114
301.75976424905343
301.2479978872305
293.15000000000003
297.2168481728803
293.15000000000003
293.15000000000003
307.42575337791885
307.2251771642014
308.2319625701576
310.88965260945037
312.1267146771191
298.64798731925754
293.15000000000003
293.15000000000003
313.6092128454057
315.55034922683075
316.31141424899084
308.25387305053204
306.8857492250618
307.9497657564683
301.4989415264227
300.77492606338825
300.7382802011297
300.4089876201583
301.4561083877866
306.18059527269793
307.28085510900485
311.45521544292274
311.264340485046
320.2398575530935
307.07630179812406
301.2524273995206
306.3129639115689
299.9790247916251
301.7479724105097
301.033817563136
300.81328473560967
307.38626388209553
313.1029366716996
311.4542318819896
319.0476289610971
316.72136092939854
315.5001501943107
300.2397432342458
299.2328794337956
293.15
299.9361962695997
313.3622364213125
313.6132711736308
312.6054033659882
315.03191110185713
319.42664901651796
319.9273067164799
319.80935419340676
324.33299183300034
299.8727881281592
301.4824912531029
304.04039428595365
314.9908120238793
313.2468029351122
314.22874011500664
319.65254713697135
305.12781715828265
320.5063438177191
324.51382637434756
324.45706011515983
328.664024026016
324.6064252032907
315.6740588541316
315.0193760833926
318.08374329053925
307.5009265834337
306.37762802563515
307.16401228161396
310.87642233008677
311.2512298223297
310.32023613316517
315.828416176361
315.50163344321453
320.22977174397187
319.77474009968506
328.7326439706101
316.32416764460214
307.35657624098616
306.4372203455778
311.7723697576993
307.22836567973366
310.4303297023699
307.91008710538773
313.6108338007881
316.4174050534635
319.6091411571943
302.42899478566096
320.2328006633715
322.2584878166524
324.5837020482833
307.15817734271036
318.7275914986191
320.56634446540517
323.9842721346109
324.21619046357495
324.14945475165223
328.4943513173126
328.1730788827054
328.53863212536174
307.37379613171123
311.65895552937184
312.0130210998204
324.01542078629393
321.9054405254355
323.5126475273992
328.40679879070666
308.7245466814699
313.6385291119051
312.82361375145206
328.79926550032957
332.8877195157232
332.6822936912465
332.8865180148471
332.81505025978163
324.4255965393753
315.1447898496427
316.20589079213556
318.721485947756
320.12250152467396
315.9793494146244
321.53099460159507
324.51922874657527
325.8414879468867
328.74261250532123
328.6072979367506
328.42317241151625
336.9696445420547
337.93918767352875
324.8704072335741
315.0081040255333
314.6460317455265
318.07536049401807
320.5021108016236
324.6515981376082
328.30817665564905
323.2723696196527
311.4547007206202
328.7404498404167
330.7223496838141
332.63387824937894
316.3348171090457
328.8300510339935
332.57122795240815
334.6493653941973
337.84306074964456
336.77305195819133
336.7991065263294
315.8234488776648
319.77067336959766
320.04746071006724
320.8366471830586
328.3351707900329
334.85037346424986
334.7070311535396
320.44127578149255
323.3812390781193
319.4862335899598
323.34579061884864
337.9349871348402
336.9632191642681
340.97606171168593
340.97586622931254
332.8044034211034
334.81143565247197
324.04811281065906
327.43008721168263
328.6332671137788
334.8574627851413
332.89116925256036
332.7297344168993
336.966650484509
336.86971223943107
345.8750011017518
344.9150850247795
333.1135270640112
332.69118433691807
324.2197086365746
326.05289362371417
328.91889817584394
332.95375232759403
333.37015805860125
320.2337884345534
322.3513031029868
336.97374207524075
335.0122902788128
340.7658785274949
340.93902537934116
324.9102448242689
336.9832571885963
337.05558022989476
340.74000425404665
340.82888386147994
338.07160225078235
344.83867518602193
343.32980943840613
343.91836506950426
324.55807676637676
325.00571487747106
328.75889409361656
328.62943558943
326.23390603177444
340.38846737702374
336.65965163682966
328.86675790734773
329.1551408147854
328.8154110276537
344.9053076606855
344.6105551058153
343.91919898942075
348.7724356033867
348.4723991279143
348.77187477194906
347.7882722163156
340.78873180259546
339.3121716918859
332.69000924847114
334.630118531745
334.83997434420604
336.9304485441376
340.9766484940085
340.32388208819606
344.9087275512838
344.8221226711004
351.2459360359396
352.56464703832114
341.1743034905371
332.821743838747
333.79680918587115
334.855673501135
337.04703776264665
343.0036897309938
340.9859684553258
340.9582549580037
328.7359311244431
344.91002818865314
348.6654225665844
333.16136926589803
345.0032599555783
344.9884069380951
345.8658147945862
352.47342961381867
348.6381566501492
348.58390730440925
350.8509126833488
335.0569226292965
332.9861041766586
334.9448601757542
336.96914985680075
348.2254530696799
337.0447255176879
337.10136445342954
352.5562855305207
352.2971378677749
356.25904871780676
356.2221265391697
353.4705087620924
356.4769092852206
356.2709561790612
356.7020351501006
346.0612771008554
351.5138902507287
352.50890945184415
348.51951682826126
349.92421746540435
340.9001143824393
340.9416705874656
344.84142643492333
343.1767327895153
344.3793748227036
348.77399204012033
348.7484045106246
352.56700767624136
352.46786350900084
359.8997062971051
361.657100122108
348.9729452448018
340.9269990084055
339.6739728276743
340.9275926925404
344.9939202139901
346.302078988065
348.7691464757335
349.3279305628514
336.9654574246261
352.55457272363805
356.1683518208729
358.05577519145294
341.2316145124884
343.8991146639692
352.64885051495463
351.2857453030249
352.194754095226
359.7967057537134
359.88686433210734
356.1398182020456
358.02867411938206
361.61362803431615
353.0639176913091
340.97723170214977
342.40220031643105
344.39147063468977
344.91134157622577
344.9721778476979
359.8486056808996
363.4341450166834
363.426469436014
364.5003528450755
352.4240284106027
356.1217169248375
361.951090917556
356.0232970010507
348.8102420238784
348.27651432584685
350.0837347884908
353.17391033630435
352.46858281326445
356.26272185951535
353.35997611177487
359.8897919223478
359.8082606996344
359.3644449063506
367.7392935813698
366.8808464228346
356.4538499446889
356.7923890666097
348.7157527668364
351.65184750799745
348.3885153995852
352.65487450702403
356.2701490975732
356.80789811546697
344.9149249544061
345.93139154183365
359.90051483204775
363.31992335523313
348.4026200072601
349.0022914380697
359.96937090597027
360.1722260141086
366.837130533977
366.0203355615274
363.390478376695
363.3245700185431
363.87364504960266
363.473730388304
360.1449147982019
348.7344783982996
342.8253846172409
352.5525776166035
351.5880747617338
352.3062245260373
356.18421512101736
356.2151807918574
352.47014948429927
352.6233636649544
366.87020287043055
370.2804132348097
369.23414785070804
370.28467430555054
369.09971528334967
359.7377854048985
366.1739330983831
364.6484477921274
360.4516634201236
363.2183156096595
356.27105076527585
356.0361051952813
359.8275364147921
363.43485489738066
363.3560122949677
366.6924685165376
366.9010377548473
366.80599377474476
373.5825326609125
372.74417507876365
363.59683670821835
356.2356112939488
358.37244324225435
356.68309807407354
359.99415478404734
360.1836057769352
363.43029998162183
352.5526444241313
366.90311030480336
370.1749226397463
369.8765460169795
356.3249853946711
356.4719622276945
373.5082978010297
367.7542589874008
366.991848655478
363.5653459374263
370.1634577435461
371.90248935250634
366.89929804060307
356.2009054748573
356.1488524439464
356.1175282557543
359.85396071496774
359.8606147764085
361.63449369266505
360.72863293248724
360.80305351799694
359.97125027720074
357.959999381259
374.0259681117586
373.5368924149271
373.3859065141997
376.785919832882
376.7847727047676
376.788618464032
376.07657079559425
366.76936775615286
370.1854065755578
370.07800359012293
363.38028236435287
366.6317509745438
366.85196510537156
370.2838467626692
370.21477423967
373.5792226682245
373.4619281606823
375.3685722944049
379.9144497547795
370.3224990275867
370.42066673090574
363.3863020880524
363.41755903734855
362.58614381696583
366.9545545610042
367.01912544863984
366.961896176854
370.28059980216636
370.31999230082243
359.88384686609976
373.5895081938692
378.70308063632643
376.7220444214153
363.6460815776784
363.43882737081935
366.42977778031405
376.69478715654645
374.36917609402917
379.8495157087422
373.9999707058086
373.65504595686315
379.9531369931285
373.20211360339084
377.6724068639379
380.99936425110735
363.3719554736676
366.865424609283
366.89580303702036
368.99315425976783
365.96639110138227
366.9772017518854
379.8683286700999
381.7844718247962
382.94331258827765
382.94818975930053
376.5823879311319
373.44130289549497
376.6807814788871
367.712892890175
370.28883990830224
372.7230484513365
373.5278490975234
376.7869555066413
379.9138705632317
379.76650127176976
379.79960278445657
379.82873360831223
379.84177204107806
384.9499874663142
385.8726930864597
376.9261911109152
376.04968602792184
370.25300778648136
373.67930185593366
372.74759066210555
376.7890407637555
374.03053560935336
384.4002281390983
366.8993037689845
379.906088815531
379.97121364063975
382.8681795693814
384.3946502905717
370.45924226992696
370.30566480450403
382.8617380162807
385.8178240333752
382.9697396119492
379.7754585961637
379.56125206320024
384.55503596050124
370.24276565494847
373.56907539982427
373.56231566278797
372.7969038901172
373.64127570007787
386.92708641859673
385.87064059006667
388.7239754285386
388.723742721961
391.46770415957
384.7368528198959
382.7553962635633
383.3998102532195
379.0367039709529
378.29402090894285
376.7822270893575
385.08477114906657
379.8089425586804
382.9456903742975
383.65601488830373
385.87860360330984
385.7889423380545
388.0134743379642
385.518147710477
383.03952185623126
376.80082262373736
376.79126571933824
380.0036408354356
377.6169762215777
380.2851959299671
382.9293202368767
373.5764685716754
385.88849294936045
385.85918971826777
385.94051585094627
385.90578338368135
388.6766839275946
388.70402806985317
388.86286439440124
388.5388780827586
376.8905168832479
376.9535417166315
387.98188339763624
388.6535065323418
391.4308700256867
389.2947738577134
385.9248531717579
376.7498442556417
376.9684497127371
379.9344619081642
379.1321160264072
379.9934139664063
381.02797331842436
390.78935332740366
391.1163484300457
391.4511725364909
394.1320312003115
394.1250523366255
396.67872597836003
386.91805380578984
388.78594872736267
382.90631338929353
383.64822293074104
385.820878814248
388.7210541792305
388.07575490122696
391.47853390719365
390.09506893966653
391.39599247274845
392.7938049946612
388.85176765863855
382.9745854993352
383.70184753806444
384.04321437615783
385.95339467779866
388.72403744285117
393.406671178181
394.75919301935687
394.74220183235474
380.6425296458972
382.99136237693546
379.91605307601617
389.6267355845302
392.33297455828165
391.4885009931117
391.5420977169851
391.44792222208986
394.0072163418143
394.1161365917858
393.9615603009952
393.2166155653529
381.8242696794751
383.09887262107884
394.0569719537208
396.6282049848136
389.47168187502007
382.87787888345696
385.1429988675398
385.8781062059499
388.7129024719189
385.9614845636319
387.29977071277966
396.36785497259183
396.66244754629423
399.13884335178585
399.7656664443609
399.14150033484094
401.4888076510763
388.84983729691976
388.67768113544304
388.77071591002937
391.4407355518099
392.7956390591481
391.63232267993567
394.12486938101796
395.5002464025486
396.6788586088453
396.61102774573703
396.63080663694313
393.9305293695488
394.20682520357224
395.95911678397437
388.73438909332333
391.5966010760948
390.4111774486452
394.13641900085105
394.6764159275472
398.6627346706604
399.1383478768296
385.1534490443792
386.66453040244056
385.88991387226946
396.70377091246286
397.5762040119869
396.3087100712953
396.739229803025
399.1308327454461
398.97608936377407
398.17889752955057
388.8707700783401
397.88993517051597
399.0357794949942
401.446934140509
401.4571052188791
393.02518161618815
388.67471245719804
388.5335517394896
391.44085907067154
391.4673727479384
391.5373518400757
391.1231132943921
392.53424521787406
400.6388176303637
401.4792877338095
402.6362073861155
403.7416102787228
404.27782218836523
404.11263592417913
403.74985520329295
405.88980656343216
394.9243698028003
394.09299890230574
396.5190824386555
396.65267977592737
396.9852742341
399.13427318845663
399.5474818088885
401.49822466008635
401.0445045648896
401.48582049445554
401.4007661137518
399.22928212380333
398.61194852510323
394.13448834004873
391.890653009863
396.76744140765646
399.03700765228683
399.14850300253346
391.306558484004
391.4832890276452
401.36574097789907
401.4778727736764
401.5602669652519
398.8069609013774
403.74092848152844
403.08598430390515
403.602318223874
394.0176115872901
394.27066043056396
403.66361374936156
403.8854063089747
405.86164297510817
406.21170282478846
396.4170399803655
394.10264779516507
395.0865320009482
396.68963994139807
396.54017342832105
396.7439571990732
397.8043502113123
405.90677431545095
403.7638252794988
406.4915759274099
403.8219108822571
407.9457119358034
407.4740902850824
407.9367335789591
405.8900165816852
407.999726267918
408.7613686617763
409.87977583774756
409.9113933103291
399.5399633100644
399.104511481869
401.4711961206057
403.75978388641295
403.0155550334502
405.8953012529999
405.83006977852443
404.51398191720057
403.6392880099278
399.1582125599095
401.58792078265094
403.67357436483263
401.88322925084617
403.7423326374738
407.3174037444444
396.5489855504554
396.69069140387506
405.9032478907384
406.20130282980443
406.2114302297014
405.93819217507126
407.9430671694084
407.747151381506
407.8140236502493
408.9439661721125
399.05760888826444
399.27094515473675
407.8663987197731
408.9841022762773
405.12613199030517
408.081149617461
409.8343889218692
400.03782520454905
399.1227502495193
399.0134013599015
401.50262952031704
403.45241585872105
401.5606764631394
400.2240678168398
409.88483320486006
409.67666464775056
408.02967432310794
411.7059041106541
411.77870275685393
411.70305051056226
411.28914531712195
413.42199793262074
412.778349398106
403.7292532625598
402.005133019719
405.89179010684524
404.29677787103077
405.87047334193727
406.81931608792814
407.9425560914247
409.8801708953461
409.8304537948233
403.79185349100675
405.45586008989983
406.2482770453913
406.0065714545322
407.9398916824958
410.72500976889
409.7860843811267
401.39299397749886
401.4770978401168
409.8870234188792
408.7225090962756
410.85439886139636
410.0833269483126
409.9292862951462
412.96160478739506
411.712953997933
411.74459245704907
411.56964731352497
403.6756393561008
403.8530154577898
413.3914069569283
411.64572574966337
412.52923942331546
412.3644688778822
403.6511828563508
403.69655114652335
405.89599035259556
406.16775531093595
406.4204612191372
405.94433307359094
413.8077398006772
413.40776334775757
413.10168422847704
411.7659286863094
413.42941350525234
415.02057319213503
414.5948450943378
415.01668072342517
416.51369224107935
415.96212369209184
407.91561798706886
408.78011298650205
409.8566920761578
411.68573025323025
410.95222156442395
413.49213590753317
413.39426155908285
413.36015718675435
407.98957362800434
407.9827948982466
409.9401039565449
409.92314614924067
411.6893320479855
413.45028753305274
413.22046370732994
411.91757211024725
409.0933123414723
406.151183031583
405.89435529475634
413.41699430549835
413.3889262978351
413.4480832963266
415.02310461876647
414.72987161654777
414.8004252770304
414.92258660369924
416.4802202040689
408.2150983895457
408.0368569770464
414.1285386145538
415.759381247207
414.9674833255309
407.9008605944271
408.24415330596713
409.84912464228665
409.92680896666513
409.98206045260724
416.5110558082443
416.4011422319183
416.83713317014315
415.0241876678175
415.07862809473494
417.88400191204613
416.828453105124
418.4356075867111
417.88326598037844
418.674379334728
419.1462595394668
411.677563663723
413.3806997695346
415.01365544142976
413.5637344897078
415.32715565452304
416.5203356997833
416.54834882775333
416.4791276572805
416.3917209333414
411.9944958099998
411.7497321318936
410.7821346982557
412.5121264288983
413.47745354777174
415.008427589616
415.06952256610924
415.2855713724646
413.4061301862475
411.8204490548542
409.99640471233323
409.8804069923741
416.5012072112885
416.50085877762393
416.54722658670374
416.797364758153
417.844124482311
417.69327659095126
417.8883992362324
418.74152795925806
417.68881307048906
417.7875926314788
418.70635393554755
419.68334606138507
419.11153114634175
418.80302220661
411.8058752320524
417.5710905567025
411.6850514626149
411.74324961849186
413.4075545787189
413.4562568894872
419.125036845695
419.95888097635725
417.9333227742355
418.4276449362523
420.2874081660449
420.29754888952993
420.4055267414203
421.32751407153273
421.35477573939426
415.00433365614475
416.502773382794
417.8943293811454
417.467287200271
419.1389496035898
419.0935314747275
417.9825221918454
417.884785628301
414.8894081936585
415.0451350533239
415.0775389157826
416.5555852521375
417.39655891718996
416.6140509182004
415.793890568806
416.59883082585475
419.56788111765667
418.109381092494
415.027401525577
413.7215935973429
413.56929989864506
413.42574206176323
419.15105696348644
418.14092381872683
419.1613547575541
420.41271615527313
420.2640024719486
419.9759076134979
420.45428017949115
420.2795010142951
420.2052089629251
420.4024294485951
421.301254230436
415.09878348447825
419.6033114652636
414.9972478474046
414.83297357340774
416.7791741561359
416.5131565613164
416.5437408848504
421.30121741136196
421.05690728914556
422.10871663354806
421.22684654796086
420.33068580107783
420.67054206712305
422.22699858084786
422.57476353740947
422.68066882422335
422.22121249593175
423.0114526848419
417.8823896515536
417.79141965483717
419.1158782015785
420.28999906661915
421.3049404425623
421.3863845881224
421.28843583935753
420.29014214447847
421.3334371720677
419.30080245884824
419.1883674844075
420.042683860037
417.909039108012
418.29982717798754
417.6203700654008
418.1703120409013
419.3242296841011
420.3340563257871
417.0643499320739
416.5178690513229
421.32950392624053
421.33927631319597
421.9793016009623
422.21309687100893
422.216613695372
422.42039381243546
421.56686103547503
422.16916530492426
422.26565645102005
422.99353954644107
417.95356238122974
421.43472607795235
417.862444311245
419.14454846256314
419.4548892705824
419.16541814134604
418.7571302778298
423.0894795735118
422.99185217865914
422.2918166556241
423.0694614673685
422.27102580181867
421.58812524130735
423.6791773862279
423.49821311973756
424.00365311947616
423.67178278318073
424.2237337304273
420.28867088130477
421.29446274313165
422.2198072670487
422.92039367863595
423.0099099048589
422.9891082504127
422.40457197494123
421.35708595144604
420.5837710583873
422.4390336035304
422.2239968029654
422.714025466632
420.32140726472994
420.0921422534829
419.6188690156944
419.5918945896345
421.05880167624514
419.1453983047718
423.01925687585526
423.3618797658527
423.0301328129511
422.5853195309876
423.44766075415714
423.66573513438226
423.7386011266142
423.6789072491595
423.5102732212743
423.8223025155639
423.6222532656329
423.2345336588151
424.21136150281296
424.25171013887064
420.33903030324774
421.2730960877168
422.82166801555525
420.2629116510446
421.2988671293985
421.3430873137597
421.07656699339657
424.23765860191355
424.2784631363022
423.69692717118096
424.2656037157605
423.27514911824784
422.2384254864992
421.5561724469256
422.012458937981
424.65202987994957
424.82070314525737
424.64289104446243
424.96814315641194
424.9440544069034
422.4108129382614
422.22070482403825
422.99387167932883
423.67635489125354
423.54647737399546
424.22695586186086
424.2917709365109
424.2125857129468
423.8214439891326
424.3679838090722
423.03854051802745
423.6869123999637
423.80810658096823
424.0059622502767
423.50728723940966
422.0574681113319
421.75659888009085
422.3328191041977
421.31505548726176
424.22025568705675
424.23554505923136
424.26259962679063
424.26381889850563
424.6404524938668
424.63977756428915
424.6467429147663
424.3576056492928
424.6189376897947
424.76051283764224
424.9512344630682
424.964196548631
422.26392867421174
422.3548044803911
423.1917245434679
422.21747865138417
423.005174870952
422.4877645932204
423.01482555903107
424.95177699996316
424.9496442146738
424.920737544259
424.6551624933497
423.69636470911405
425.14121252817665
425.14818981317086
425.13558098585906
425.14891555479596
425.1410574070024
425.199002568581
423.6681421153025
424.21063713286463
424.44822477677195
424.6441830790082
424.51024647316086
424.95501473592975
425.01302284254956
424.9521862034787
425.1918502869406
425.08823242901394
424.2542592453929
424.2892746167526
424.1494887708905
424.66771906365557
423.92270527517485
423.11680994483004
423.00879220838743
424.9537304947762
424.90806210075675
425.12320566533595
424.97550563662105
424.79026328780833
425.13987068794086
425.09303367391846
425.13835820090577
425.0472408469202
425.167090920131
425.13677640565226
425.19339792627574
425.12876417627444
423.726197388789
423.63899203370346
423.8310490445758
423.67105242690366
424.23046680681387
424.5164663306024
424.239124216877
424.4021037160273
425.1937655744748
425.1967417579218
425.13311737532234
425.20157500216254
425.1455879717226
425.10555842409417
425.2047259797784
424.9130002550426
424.6628330516011
424.8968262341065
424.81621218610894
424.9595181345111
425.140466061599
425.1365094887424
424.9499173474205
424.64116940859094
424.9561293613468
424.65837926669445
425.03330088784907
425.1471146692856
425.14826418103627
425.1826006472519
425.21806886521915
425.2104165340768
425.1858886232555
424.96135268819705
425.1405705722779
425.1183824564414
424.667173084695
424.23648056375106
424.2222161471653
425.2012547028687
425.17015385248595
425.2012383288217
425.1863954040393
425.14316295930524
425.13696694891945
425.14038654063205
425.19134744847713
425.15229042738673
424.9583416718885
424.902037192983
424.752316518152
424.65241960663656
424.57685050249546
424.6712914095603
424.6437111869603
424.6628924116232
424.94532124237145
425.0597794975583
424.9582945462471
424.8809854115788
424.9485547212552
424.96742637090586
425.1433123645762
425.1240778476586
425.14067102181275
425.17027142320876
424.6746379397836
424.9111274334312
424.21224662634
423.99308304024464
425.11582427044124
425.14085355452966
425.1836414120073
425.2001355678712
425.17257985271505
425.08360670089326
425.1423954369066
425.0906309960422
424.96001916698214
425.0322187621531
424.9627644926568
424.9951094053514
425.20381513499603
425.1998670397867
425.14808018925373
424.96744737700084
424.9667591094039
424.96122338895674
424.9628568944812
424.95811736246293
424.6684133360852
424.8990088695071
424.67461888779707
424.6929921380499
424.7033314794322
424.6839838376009
424.2725726231449
424.2422929557003
424.25009160212625
424.4797091696601
424.2818696753964
423.6757502644462
425.15245618957755
424.9562803003336
425.1495975215205
425.2041556427738
425.1727832010328
425.16452689313445
425.18436554585594
425.20788070119386
424.24106791064156
423.75659435239083
424.493719353805
423.7530807796279
424.6528016529684
424.6423571882023
425.2044258516603
425.1386400378843
423.6733310845656
423.05354011058444
423.00927677124776
423.1068592696955
425.1407618854356
425.15488900941733
425.06290227164953
425.19074878336755
424.95884461541846
425.0462668734345
424.66306657020976
424.6978319781955
424.2308396852848
424.2978288807898
423.70970492234136
424.96502588696507
425.0685703125244
424.82255837030795
424.9475705435389
424.64342746889935
424.6376838214444
425.19973424551057
425.2191749797547
424.2319751273463
424.21956272979145
424.21113890900654
424.1225397628678
423.7075711140588
423.645973687154
423.6777778343973
423.72792300831975
423.02790803312735
422.742358358215
423.0189192118084
422.4815564349739
422.2339486117192
422.3596889696537
425.1368094950685
425.14862896732217
424.9730493595591
424.98134900238193
424.9625898302665
424.96134405895674
424.98600073545833
423.0068084968752
422.64284331930014
423.6617346080566
423.63150134415025
424.66158898174285
424.44344740695556
424.43661975600367
422.2244957812399
421.91827906774944
421.3195959541004
421.96879968736727
424.65873541143907
424.59370142799054
424.31910884602445
424.2402506614872
424.2891587887141
423.75148292805875
423.6737735448923
423.0085389085224
423.28007242951304
421.1819950523097
422.8545507031194
424.19752455553765
423.7347446595641
423.67351599038784
423.6532921824199
424.95227058778664
423.02451225426563
422.899631589924
423.01027642744543
422.8272959571451
422.2453116402111
421.9751695089307
422.22561324923674
422.3442913513926
422.27459956939595
421.33992823540206
421.9849406784395
421.72222970462286
421.3466560638163
421.12825712889764
420.2882012290629
424.6392712476124
424.44547639074614
424.6594440469416
424.4975312131554
424.2244502392169
423.8042493404645
424.3164420620687
424.2111766137004
421.31340579426427
422.9002444176895
422.2077837839634
423.6614308666002
419.77670593196143
420.30134031553195
420.6807144245815
419.15327406757143
419.3719955033983
423.69032874458236
423.4582740188817
424.102839688244
423.16184750626843
423.0244082342496
423.21250730809703
422.7759215625791
422.3800661353851
422.23733546687714
420.9664397181593
421.3110228783031
421.49064557910407
422.9799168003666
422.96320140594094
422.23581922728937
423.13685360243187
421.9782080146656
421.51053777545894
424.22409885133897
421.329897941405
421.2898862276998
420.722518517484
420.32700995059355
420.1603097632352
420.30219330972636
420.8536363995902
420.5547071405715
420.3713000123207
419.6932350445738
419.1772248260531
417.8919197779193
419.1720332485583
418.3746162769904
418.4635070990663
423.64916163425374
423.6475111017732
423.6921444665659
423.8234277668695
423.0109792255634
423.11012542960873
422.99020582930217
423.1528147871797
419.1642665467062
419.2456565339956
420.25220191704835
420.9550788562329
422.21606043095625
421.75474554546423
421.8775132752288
416.5139657340405
417.88843257098233
416.2339811640752
417.3893134547208
422.23580137111816
422.4723145888741
421.90146783746263
419.35264382400413
421.32457318449457
420.28833190605724
420.5566275781831
419.1446836397705
418.23834312721186
421.2748309635875
420.5228898581074
420.8497858895834
420.2921089055023
423.0079639639504
419.1590435401803
419.13064202273375
419.27356538706783
417.92518611898197
417.4516854940737
417.8924073787991
417.98239973510596
418.30136944147876
416.5471660624734
416.79409022692585
415.0157412248834
416.33581054256797
416.54028022582946
416.9997893763022
422.1809026243733
422.2397673154928
422.53266969944906
421.32245853588944
421.40577621345005
421.28797179447514
421.7315736061567
420.82951156927555
416.52129889943325
415.01653513408627
413.4162316890326
417.831488006589
418.60020063389067
417.33451052814326
420.2704518403279
419.87329514228617
414.0054514559804
415.7452023060731
420.31158265390656
420.2043231037914
420.0969470784766
418.1074033158109
416.5058750070611
416.7421254027074
419.1640868979012
419.3698448612902
418.87259003873874
417.8841824212965
416.62262928252665
419.110542645507
419.1158769417642
420.5006022816871
418.86425013426737
417.8801965900166
421.32260208550593
416.4930262798377
416.4835151894269
416.47394559467284
415.05520874628974
415.38523397633804
414.96878964119514
415.2128197819219
415.02366664574123
416.4814716887958
415.11021360928584
411.69796942904935
414.8327817418596
413.45501000813084
413.8154069175973
413.4443840733929
414.7618480041746
412.9645107326468
413.8548641045539
420.2334228693572
420.3086248241762
420.5636641753952
419.1493475011533
418.69676612805046
419.1304377629469
419.92671820987204
413.44229027980066
411.6967397584437
412.0652365089788
409.87995627402364
409.36142200789095
417.8663241354698
416.4847429980612
417.37344870245215
409.99865222303265
413.7454414303102
417.53884831898284
417.89486742753894
417.5562041450902
415.02184171688356
413.41724757676366
415.237352341045
416.5353408321492
416.13406236310755
414.50410117594055
416.46869140946023
416.46647884431144
414.8787351911199
415.01507216091073