<?xml version="1.0" encoding="UTF-8"?>
<VTKFile type="UnstructuredGrid" version="0.1" byte_order="LittleEndian">
<UnstructuredGrid>
<Piece NumberOfPoints="268" NumberOfCells="476">
<PointData>
<DataArray type="Float64" Name="&#x6e29;&#x5ea6;" Format="ascii">
295.99456846135024
293.15
293.15
293.15
298.785607653687
293.15
301.20516020849755
293.15
299.9145837170427
293.15
302.70613674449265
293.15
305.57502576004316
309.0687899408917
306.53957030285466
301.64048796185426
293.15
303.3124937460888
293.15
303.3129338551436
293.15
310.8389902266569
315.85309162321033
312.68947258922793
309.51955402612845
303.1817559139792
293.15
302.7379371187853
293.15
301.5916499223645
293.15
311.39205527701284
310.8882405211354
317.4198179302864
321.56107575175764
318.8591244333764
317.04486541016564
312.2674870336504
304.4293958685491
293.15
299.9260602363308
293.15
296.00799814615795
293.15
309.34933564793727
306.6571402832845
317.4567457042406
316.0598747312045
322.3882299850048
325.72721643896097
323.4555262763935
320.09670374655565
305.2257093167672
293.15
314.1673607841289
305.8231309714508
298.8317958497694
293.15
313.07576946991975
321.59726028393953
319.0717646996451
325.8296246258647
328.2433874758652
328.20295619755376
326.23992068376805
322.17126399137237
305.7976553122517
293.15
315.4390001928245
309.99501125375417
301.55119721912956
293.15
317.445976136896
323.8291852945659
328.35565794789653
330.4321385393742
330.4640657256814
328.20572181683025
323.5146242090741
306.0390857013868
293.15
316.16003259280643
312.7969838217368
303.6190240217015
293.15
320.5658070122791
326.4773589455796
330.62166604328814
332.4834065925372
332.1778486381209
329.51347033698676
324.3513290981676
306.1921549647946
293.15
316.59307024240826
314.5813529441197
304.70596307503087
293.15
322.575886287007
328.5227566326878
332.361934805349
333.99145809385703
333.3473861703147
330.31382975660284
324.8158280302025
306.2477528964883
293.15
316.8006929556284
315.76453472763956
305.48793133525174
293.15
323.9039460966167
329.84140103657296
333.5330127579525
306.19864813817003
293.15
334.9428036909547
334.01450269296515
330.69844070585486
324.96741174045155
316.8118630732885
316.5302235231274
305.97359873548766
293.15
324.7658715570015
330.6570424762355
334.2046195758998
306.0410609246797
293.15
316.6026288202474
335.40109388301806
334.2330749673284
330.70156023569876
324.82131184052804
305.7763964680782
293.15
316.99182984981013
306.2864073110068
293.15
325.24510069284185
331.0485006040513
334.4252197823525
316.17721936368883
324.3646750119978
335.40624635564353
334.0237017848655
330.3233613806006
305.34744845573977
293.15
315.4688960415401
304.46164861210417
293.15
317.21365872281694
306.4621439148478
293.15
325.4015306474518
331.05102005524526
334.21363318692505
323.5537922564245
329.53007093813454
334.95928829166013
333.3681011276937
314.315109980262
322.28386402375355
303.28282336361275
293.15
312.47055698510707
301.3959592879496
293.15
317.21286113365767
306.5187921996199
293.15
325.24504918404614
330.66370995268585
333.55182957757876
328.2612568129943
332.2148829123715
334.02225622116754
320.35241603869576
326.37927348776606
317.25824890950224
309.7479257856266
305.5325237475322
298.8853126193239
293.15
296.01581895374625
293.15
316.9873799411471
306.46093444202387
293.15
324.7595201224397
329.85267285938795
332.38839507913826
330.49562543191286
332.52932999018543
328.26532336041305
323.76025803808085
319.12842980120695
313.0292971304771
306.71549293179504
299.9316697466099
293.15
316.510169305856
306.2800051944516
293.15
323.8935572389233
328.5418845291916
330.6560046790849
330.48394307248344
328.2773345308875
325.78037101785
321.759889241258
316.1807374820673
309.57284979878006
301.7009739886824
293.15
315.72098594531394
305.9519384721338
293.15
322.53976607909937
326.53615291838236
328.3662896186934
325.83253021929676
322.52743948319227
317.6280228793185
311.0672866796421
302.88765506337717
293.15
314.5152280600019
305.4331289973747
293.15
320.52171761380805
323.72155359887694
321.69712030180057
317.6227973228497
311.56366937319393
303.43993778136297
293.15
312.6356743041674
304.65276827075735
293.15
317.31621286042497
319.0730299014118
316.0684168621269
310.9751225400214
303.38681350021074
293.15
309.9971914358343
303.4312989262838
293.15
313.0231187937529
309.2311902854035
302.7393565445804
293.15
306.8225234712181
301.7322369212234
293.15
305.7304894927015
301.3087471659523
293.15
300.0299848656294
293.15
298.96907328133005
293.15
296.04516324288977
293.15
293.15
293.15
</DataArray>
<DataArray type="Float64" Name="&#x7535;&#x52bf;" Format="ascii">
0.09660901067930422
0.10000000000000002
0.1
0.09473684210526316
0.0962035269611836
0.10000000000000002
0.09593160558157134
0.10000000000000002
0.09210468433007435
0.08947368421052632
0.0958169837785371
0.10000000000000002
0.09186332171407972
0.09162338138845637
0.08833065181706869
0.08685730343475352
0.08421052631578947
0.095826535006325
0.10000000000000002
0.09583219824302565
0.10000000000000002
0.09166098728903699
0.08750744127865538
0.08695994868885755
0.0840330726829347
0.08168028630642508
0.07894736842105264
0.09582716625509831
0.10000000000000002
0.09580836128550897
0.10000000000000002
0.0916980488443538
0.09169460876552715
0.0875775915735106
0.08343787997464004
0.08371533205368022
0.0815223016579021
0.07896130458704857
0.07643300045111003
0.07368421052631578
0.09527620561574825
0.10000000000000002
0.09640773785206558
0.1
0.0916466969805622
0.0919064180539611
0.08759900544718104
0.08756488662886147
0.08356222444623713
0.07962582707195348
0.07910633167787617
0.07635782025701553
0.07114898227011625
0.06842105263157895
0.07374134631707387
0.08962517380689505
0.09202564153931643
0.09473684210526316
0.08708576387159044
0.08352682415101435
0.0838364205572936
0.07960621845912325
0.0765780660024904
0.07541603884425903
0.07366591190339979
0.07108009296067665
0.06583556278450653
0.06315789473684211
0.06846911243615976
0.08440338031280505
0.08705363344794913
0.08947368421052632
0.0816255738373049
0.07911918488374592
0.07540891788287062
0.07283332775424563
0.07068671395289224
0.06842296192730601
0.0658204193564888
0.060567941939736185
0.057894736842105256
0.06320192629576965
0.07905552087146289
0.08172339800225331
0.08421052631578947
0.07636172377338624
0.07361299996694037
0.07070365552798169
0.068113259170912
0.06566377990728234
0.06317875996631393
0.0605647991858859
0.05529890058032585
0.052631578947368425
0.05793933334976598
0.07374083016633272
0.07640450868653342
0.07894736842105264
0.07108814537735965
0.0683234092235107
0.06563954427946805
0.06304822147613166
0.06050078597319305
0.05793481648638058
0.055308974574903934
0.0500361576336693
0.04736842105263158
0.052678743908606156
0.0684525721834753
0.0710984967173608
0.07368421052631578
0.06578341625499697
0.06311122710344258
0.06047687584509318
0.044773435092967544
0.042105263157894736
0.0578776983262631
0.055287451644766276
0.052679596486136716
0.05005566036290882
0.04742753649094288
0.06317546823200972
0.06580754687043022
0.06842105263157895
0.06053341524577922
0.05789561067699323
0.055276550064240704
0.03951629610802627
0.0368421052631579
0.04217984924049792
0.052669151078327724
0.05005878828179721
0.04743728395538054
0.044809291810238495
0.034264502085918976
0.031578947368421054
0.057911864911113865
0.060537453570117424
0.0631578947368421
0.05528666832398519
0.05266788206554492
0.050057746345923436
0.03693262180772044
0.0395672727169147
0.04745142253878187
0.04483418555352508
0.0421953752867194
0.0290004426320887
0.026315789473684206
0.03167498299043748
0.02370026190082806
0.021052631578947368
0.05265626195916314
0.055274465586104375
0.057894736842105256
0.05004293495390947
0.047437482881235636
0.04484086734985252
0.03432621840876742
0.03696190254770949
0.042246499241582254
0.039628492034189174
0.02640555727636267
0.02907836749650886
0.018443398603223277
0.015789473684210527
0.0211151675678564
0.013190732805481095
0.010526315789473675
0.04740419611607579
0.05001487662813057
0.052631578947368425
0.04480262947266218
0.042214826964165016
0.039644779685864114
0.03174221093977233
0.0344701330041376
0.03708172112084578
0.02378209727053821
0.026539138093175128
0.01859499648907928
0.01581164845627456
0.010545769469640103
0.00802779053291859
0.00526315789473684
0.0036077683647274027
0
0.04215590213652166
0.044757461407193146
0.04736842105263158
0.039568935128002865
0.037007904545780325
0.034492840633939786
0.029410866673054353
0.03201291642501703
0.024588657406611068
0.02099141435607847
0.016336339774231396
0.012979825802367144
0.008217752429162846
0.004747893395981635
0
0.03690874255094211
0.039500555639915995
0.042105263157894736
0.03433633802394632
0.03180586531104932
0.029419610959094792
0.02726533826142406
0.023470431200902413
0.02038189995119991
0.016716771507714178
0.01259680268799579
0.008564693670950647
0.004288545705481011
0
0.03165567892614471
0.03424244496773946
0.0368421052631579
0.029079666526968504
0.0265073811719156
0.02469271581340764
0.020452926752460885
0.01657060683691194
0.012550505208612521
0.00843268016409892
0.0042525757949796695
0
0.026393729234482605
0.028983755063519218
0.03157894736842106
0.023784095909025967
0.021048839627973052
0.016684051823691173
0.012553979245778743
0.008402051123097812
0.004229435952878954
0
0.021186942563845984
0.02373036985279961
0.026315789473684213
0.01860399311593824
0.01638080565519503
0.012584605663645469
0.008394244136128852
0.004205320778989697
0
0.01610604897623956
0.018529787198612018
0.021052631578947364
0.013151012129485638
0.00842959631285299
0.0041899116924084025
0
0.011841118242399504
0.01346087214517601
0.01578947368421053
0.008138110696054386
0.004110306762062762
0
0.00803378024044975
0.010526315789473694
0.0039051892829846217
0
0.003440425483634222
0.005263157894736859
0
0
</DataArray>
</PointData>
<CellData/>
<Points>
<DataArray type="Float64" NumberOfComponents="3" Format="ascii">
6.781978641391569E-4 6.849168379545461E-4 0
0 0.001 0
0 0 0
0.0010526315789473716 0 0
7.592946077632823E-4 0.0015156323531722426 0
0 0.002 0
8.136788836857322E-4 0.0025000441115266715 0
0 0.003 0
0.0015790631339851304 9.089518366004881E-4 0
0.002105263157894739 0 0
8.366032442925774E-4 0.003490793444471912 0
0 0.004 0
0.001627335657184057 0.0020039482869027322 0
0.0016753237223087307 0.002992533819825978 0
0.0023338696365862626 0.0015657365749191458 0
0.0026285393130492966 8.206448556511515E-4 0
0.003157894736842106 0 0
8.346929987350008E-4 0.004484929425295986 0
0 0.005 0
8.335603513948687E-4 0.005472970802271826 0
0 0.006 0
0.0016678025421926006 0.00397959193983409 0
0.002498511744268925 0.003510349835108761 0
0.0026080102622284924 0.002470475301111697 0
0.0031933854634130605 0.001607571479717215 0
0.003663942738714983 8.21345469930504E-4 0
0.004210526315789474 0 0
8.345667489803387E-4 0.006453666065881561 0
0 0.006999999999999999 0
8.383277428982046E-4 0.007395157851065143 0
0 0.007999999999999998 0
0.0016603902311292395 0.004964398403476638 0
0.0016610782468945695 0.005930237223602484 0
0.00248448168529788 0.004482686132704086 0
0.0033124240050719897 0.004044048061679488 0
0.003256933589263957 0.003205518860227677 0
0.003695539668419576 0.002482511771291178 0
0.004207739082590285 0.001654709327339768 0
0.004713399909777996 8.350730398894121E-4 0
0.005263157894736843 0 0
9.447588768503525E-4 0.008480382811792099 0
0 0.009 0
7.184524295868867E-4 0.009349522787164988 0
0 0.01 0
0.0016706606038875596 0.006877805403054618 0
0.0016187163892077798 0.007690270270784526 0
0.0024801989105637905 0.00543554230080342 0
0.002487022674227707 0.0063769807868067525 0
0.0032875551107525744 0.0049621798614263865 0
0.004074834585609303 0.004514104807085463 0
0.004178733664424766 0.003447256895699455 0
0.004728435948596896 0.002509538763651253 0
0.005770203545976751 8.373523180549559E-4 0
0.006315789473684212 0 0
0.005251730736585226 0.0016722143989844718 0
0.002074965238620987 0.008390031221993074 0
0.0015948716921367126 0.009267231124032842 0
0.0010526315789473684 0.01 0
0.0025828472256819086 0.007419350601862939 0
0.00329463516979713 0.005891618984817589 0
0.0032327158885412815 0.0067073302066994606 0
0.004078756308175353 0.005405078881468272 0
0.00468438679950192 0.004960921911313611 0
0.004916792231148193 0.004236947222002686 0
0.005266817619320039 0.0033613140959034946 0
0.005783981407864666 0.0025105590396014813 0
0.006832887443098693 8.409394393800644E-4 0
0.00736842105263158 0 0
0.006306177512768048 0.001677574160748814 0
0.003119323937438989 0.008301523631827241 0
0.0025892733104101767 0.009181428891658789 0
0.002105263157894737 0.010000000000000002 0
0.0036748852325390203 0.007437363176157407 0
0.004176163023250816 0.006450029592321603 0
0.004918216423425876 0.005686918678891766 0
0.005433334449150875 0.00496155996711987 0
0.005862657209421552 0.004176539468460902 0
0.006315407614538799 0.0033394325872471956 0
0.006835916128702238 0.0025029844615498385 0
0.007886411612052766 8.342596799509655E-4 0
0.008421052631578949 0 0
0.007359614740846069 0.0016693345819553112 0
0.004188895825707422 0.008280468787945961 0
0.0036553203995493356 0.0091368602934217 0
0.003157894736842105 0.01 0
0.004727655245322753 0.007419951306709882 0
0.005277400006611926 0.006592017080678516 0
0.005859268894403662 0.005751918454015414 0
0.0063773481658176 0.004962294264760551 0
0.006867244018543533 0.004151279308450362 0
0.007364248006737213 0.00332555367582619 0
0.007887040162822821 0.002495056424705142 0
0.00894021988393483 8.31967916404126E-4 0
0.009473684210526316 0 0
0.008412133330046803 0.001664011119547845 0
0.005251833966733456 0.008284999169706419 0
0.0047190982626933164 0.009142306833019403 0
0.004210526315789473 0.01 0
0.005782370924528071 0.007433851504423039 0
0.006335318155297862 0.006603099464445578 0
0.0068720911441063895 0.005778574133208532 0
0.007390355704773663 0.004964489302265425 0
0.007899842805361391 0.004143234027977761 0
0.008413036702723885 0.00331762103104052 0
0.008938205085019213 0.0024903569496756484 0
0.00999276847326614 8.316671539359843E-4 0
0.010526315789473686 0 0
0.00946425121827877 0.00166173039029855 0
0.006309485563304941 0.008291209688436356 0
0.005780300656527837 0.009142786213732011 0
0.005263157894736842 0.01 0
0.006843316749000603 0.007448077004791596 0
0.007377754579311485 0.006614540978514386 0
0.007904624830981364 0.005788331793857834 0
0.011045312981406492 8.323109934657119E-4 0
0.011578947368421053 0 0
0.00842446033474738 0.004964988126163709 0
0.008942509671046745 0.004139679278091358 0
0.009464080702772657 0.003314448168292159 0
0.009988867927418236 0.0024889045817097825 0
0.010514492701811425 0.001662519508477268 0
0.007364906353598057 0.008296637781191524 0
0.006838490625913955 0.009146197452621777 0
0.00631578947368421 0.01 0
0.007893316950844156 0.00745423681602207 0
0.00842087786460135 0.00661979016278532 0
0.008944689987151859 0.005790662471618298 0
0.012096740778394748 8.34112166957061E-4 0
0.01263157894736842 0 0
0.011564030151900417 0.001664152350383371 0
0.009466169784334455 0.0049646313769061414 0
0.009988242343640558 0.004138540038533228 0
0.010512543208923891 0.0033142307436972423 0
0.011038141637952302 0.002490141767652548 0
0.013147099582816204 8.387827553871896E-4 0
0.01368421052631579 0 0
0.008417627017777226 0.008300120472616586 0
0.007892509285976514 0.009148060704932513 0
0.007368421052631579 0.01 0
0.008942666335202961 0.007457869354116651 0
0.009466423586891015 0.006621882207209945 0
0.009988450730815312 0.005791264700042961 0
0.012613475638455912 0.0016694269025060932 0
0.01208654545661706 0.0024945868395729862 0
0.010509715492243625 0.004964608564661401 0
0.011033162889294984 0.004139333233767508 0
0.01156092494265612 0.003316622559558618 0
0.014199911473582261 8.453933512974035E-4 0
0.01473684210526316 0 0
0.013665003401912505 0.0016778451205890946 0
0.015259947619834388 8.35840898965305E-4 0
0.015789473684210527 0 0
0.009468747608167372 0.008301434071004964 0
0.008945106882779125 0.009148961312852777 0
0.008421052631578947 0.01 0
0.009991413009218105 0.00745891603336354 0
0.010512503423752873 0.0066221467901898855 0
0.011031826530029496 0.005790989462844756 0
0.013134756318246517 0.002503980909118748 0
0.012607619490458103 0.003323217681345626 0
0.01155070015168355 0.004965051305185818 0
0.012074301593162166 0.0041424899511966875 0
0.014718888544727467 0.0016832196180963455 0
0.014184326500698228 0.0025188778838991003 0
0.016311320279355345 8.27915357265633E-4 0
0.016842105263157894 0 0
0.01577696648642872 0.0016742643895191923 0
0.01736185343890378 7.918312512581291E-4 0
0.017894736842105265 0 0
0.010519160776784843 0.008301624733431464 0
0.009997024674373885 0.009149244188566929 0
0.009473684210526315 0.01 0
0.011039474105467564 0.007458557414108259 0
0.011557034607166996 0.006620954247799793 0
0.012071044062827175 0.0057893875092427174 0
0.013651557812045535 0.003339927580807622 0
0.01310597339917248 0.0041507756278739896 0
0.012583655775830845 0.004965740889434017 0
0.015243580545892359 0.0025377263163642158 0
0.014692172381364974 0.003370567758418574 0
0.016281000702184144 0.0025053964869254037 0
0.016837670308745088 0.0016488087794882071 0
0.01789084610607198 0.0015373084217001924 0
0.018394441893416283 7.369549117977815E-4 0
0.018947368421052633 0 0
0.01927844632705452 6.498485484211332E-4 0
0.02 0 0
0.011568819572695668 0.008300944782420378 0
0.011048507718561371 0.009149099405269489 0
0.010526315789473684 0.01 0
0.012086212974399426 0.007456712953284345 0
0.012598419090843934 0.006617158610324421 0
0.013101431873212043 0.005783360891154085 0
0.01411782666538913 0.0041724898041069726 0
0.013597416714996593 0.004965463778450804 0
0.015082268518677786 0.00426656395700541 0
0.015801717128784306 0.003509783049261146 0
0.01673273204515372 0.00326478974321695 0
0.017404034839526572 0.0025561367702606917 0
0.01835644951416743 0.002282254694312352 0
0.019050421320803673 0.0015122878303078838 0
0.02 0.0010000000000000009 0
0.012618251489811577 0.008299465669435855 0
0.012099888872016802 0.009148655684906746 0
0.011578947368421052 0.01 0
0.013132732395210735 0.007452771819831166 0
0.013638826937790135 0.006607714460283998 0
0.01411607780818104 0.00576014506644901 0
0.014546932347715189 0.0049781898956505815 0
0.015305913759819517 0.004991985607229701 0
0.01592362000976002 0.00455616219261493 0
0.016656645698457165 0.004067274890282542 0
0.017480639462400843 0.0035912111481432225 0
0.01828706126580987 0.0030864242512878026 0
0.019142290858903798 0.002569162682872943 0
0.02 0.0020000000000000018 0
0.013668864214771058 0.00829744668712887 0
0.013151511006452107 0.009148100624548334 0
0.01263157894736842 0.01 0
0.014184066694606298 0.007446353626709913 0
0.014698523765616879 0.006591639746336981 0
0.015061456837318472 0.005713384909690173 0
0.015909414649507823 0.005448049197736818 0
0.016685878632617612 0.004999536744758303 0
0.017489898958277496 0.004530265591743225 0
0.018313463967180216 0.004042375642068125 0
0.019149484841004066 0.003534116790079882 0
0.02 0.0030000000000000005 0
0.01472125415310348 0.008295798870364352 0
0.014203248987296156 0.00914781663423046 0
0.013684210526315788 0.01 0
0.015243180818194807 0.007437070422449392 0
0.01579023207440539 0.006511227061952419 0
0.016663189635261765 0.005948120360174573 0
0.01748920415084425 0.005481999302666162 0
0.018319589775380438 0.005005480658886366 0
0.01915411280942421 0.004506758861871823 0
0.02 0.004 0
0.015762611487230804 0.008310225641383806 0
0.015253926029440078 0.009148726332393376 0
0.014736842105263158 0.01 0
0.016279201376812352 0.00748583487075281 0
0.016723838868960995 0.006760866745704412 0
0.017483078867270907 0.0064484788316870306 0
0.01832115117277423 0.005982466064129491 0
0.01915893584420206 0.005496933917801487 0
0.02 0.005 0
0.01677879020475209 0.008340045357508825 0
0.016294042560277597 0.009160346557129776 0
0.015789473684210527 0.01 0
0.017369797574102872 0.007480740335558406 0
0.018314080737429402 0.00697298258592662 0
0.01916201766151832 0.006488921087809279 0
0.02 0.006 0
0.0176317763515201 0.00840904205441111 0
0.0173078255709648 0.009181484043754996 0
0.016842105263157894 0.01 0
0.018372377860789123 0.007956928729290868 0
0.019177938647587447 0.007481144022395446 0
0.019999999999999997 0.006999999999999999 0
0.01839324395191005 0.009085390695670945 0
0.017894736842105262 0.01 0
0.019218962143403077 0.008465915501026853 0
0.02 0.008 0
0.019311914903273157 0.009310261239339559 0
0.01894736842105263 0.01 0
0.020000000000000004 0.009000000000000001 0
0.02 0.01 0
</DataArray>
</Points>
<Cells>
<DataArray type="Int32" Name="connectivity" Format="ascii">
0 1 2
0 2 3
4 5 1
0 4 1
6 7 5
5 4 6
0 3 8
0 8 4
8 3 9
10 11 7
7 6 10
6 4 12
4 8 12
10 6 13
12 13 6
14 12 8
9 15 8
14 8 15
15 9 16
17 18 11
11 10 17
19 20 18
18 17 19
21 17 10
10 13 21
22 21 13
13 12 23
22 13 23
14 23 12
14 15 24
14 24 23
16 25 15
24 15 25
25 16 26
27 28 20
27 20 19
28 29 30
29 28 27
31 19 17
17 21 31
32 27 19
32 19 31
33 31 21
21 22 33
33 22 34
35 22 23
35 34 22
24 36 23
35 23 36
25 37 24
36 24 37
38 26 39
26 38 25
37 25 38
30 40 41
30 29 40
42 41 40
42 43 41
27 44 29
44 27 32
45 40 29
45 29 44
46 32 31
46 31 33
32 47 44
47 32 46
48 46 33
48 33 34
49 48 34
35 36 50
35 50 34
34 50 49
37 51 36
36 51 50
52 39 53
39 52 38
54 38 52
38 54 37
51 37 54
45 55 40
42 40 56
56 40 55
42 57 43
42 56 57
45 44 58
47 58 44
45 58 55
59 46 48
46 59 47
60 58 47
60 47 59
61 59 48
49 61 48
62 61 49
49 50 63
62 49 63
51 64 50
63 50 64
54 65 51
64 51 65
66 53 67
53 66 52
68 52 66
52 68 54
65 54 68
69 55 58
70 56 55
70 55 69
56 71 57
71 56 70
69 58 72
60 72 58
60 73 72
60 59 73
59 61 73
61 74 73
62 74 61
62 63 75
62 75 74
63 64 76
75 63 76
65 77 64
76 64 77
68 78 65
77 65 78
79 67 80
67 79 66
81 66 79
66 81 68
78 68 81
72 82 69
69 83 70
83 69 82
70 84 71
84 70 83
82 72 85
72 73 85
86 85 73
74 86 73
74 87 86
75 87 74
75 88 87
76 88 75
77 89 76
88 76 89
78 90 77
89 77 90
81 91 78
90 78 91
92 80 93
80 92 79
94 79 92
79 94 81
91 81 94
85 95 82
82 96 83
96 82 95
83 97 84
97 83 96
95 85 98
86 98 85
98 86 99
87 99 86
99 87 100
88 100 87
100 88 101
89 101 88
90 102 89
101 89 102
91 103 90
102 90 103
94 104 91
103 91 104
105 93 106
93 105 92
107 92 105
92 107 94
104 94 107
98 108 95
95 109 96
109 95 108
96 110 97
110 96 109
108 98 111
99 111 98
111 99 112
100 112 99
112 100 113
101 113 100
114 106 115
106 114 105
113 101 116
102 116 101
103 117 102
116 102 117
104 118 103
117 103 118
107 119 104
118 104 119
120 105 114
105 120 107
119 107 120
111 121 108
108 122 109
122 108 121
109 123 110
123 109 122
121 111 124
112 124 111
124 112 125
113 125 112
125 113 126
116 126 113
127 115 128
115 127 114
129 114 127
114 129 120
126 116 130
117 130 116
118 131 117
130 117 131
119 132 118
131 118 132
133 120 129
120 133 119
132 119 133
134 128 135
128 134 127
124 136 121
121 137 122
137 121 136
122 138 123
138 122 137
136 124 139
125 139 124
139 125 140
126 140 125
140 126 141
130 141 126
142 127 134
127 142 129
143 129 142
129 143 133
141 130 144
131 144 130
132 145 131
144 131 145
146 133 143
133 146 132
145 132 146
147 135 148
135 147 134
149 134 147
134 149 142
150 148 151
148 150 147
139 152 136
136 153 137
153 136 152
137 154 138
154 137 153
152 139 155
140 155 139
155 140 156
141 156 140
156 141 157
144 157 141
158 142 149
142 158 143
159 143 158
143 159 146
157 144 160
145 160 144
161 146 159
146 161 145
160 145 161
162 147 150
147 162 149
163 149 162
149 163 158
164 151 165
151 164 150
166 150 164
150 166 162
165 167 164
167 165 168
155 169 152
152 170 153
170 152 169
153 171 154
171 153 170
169 155 172
156 172 155
172 156 173
157 173 156
173 157 174
160 174 157
175 158 163
158 175 159
176 159 175
159 176 161
177 161 176
174 160 177
161 177 160
178 162 166
162 178 163
179 163 178
163 179 175
166 180 178
181 164 167
164 181 166
180 166 181
167 182 181
183 168 184
168 183 167
182 167 183
185 183 184
185 184 186
172 187 169
169 188 170
188 169 187
170 189 171
189 170 188
187 172 190
173 190 172
190 173 191
174 191 173
191 174 192
177 192 174
193 175 179
175 193 176
194 176 193
192 177 194
176 194 177
195 193 179
180 196 178
179 178 196
195 179 196
197 196 180
181 182 198
181 198 180
197 180 198
199 198 182
185 200 183
183 200 182
199 182 200
185 186 201
185 201 200
190 202 187
187 203 188
203 187 202
188 204 189
204 188 203
202 190 205
191 205 190
205 191 206
192 206 191
206 192 207
194 207 192
208 193 195
207 194 208
193 208 194
209 208 195
195 196 210
209 195 210
197 211 196
211 210 196
197 198 212
197 212 211
199 213 198
213 212 198
199 200 214
199 214 213
215 200 201
214 200 215
205 216 202
202 217 203
217 202 216
203 218 204
218 203 217
216 205 219
206 219 205
219 206 220
207 220 206
221 220 207
208 221 207
209 221 208
209 210 222
209 222 221
210 211 223
210 223 222
212 224 211
223 211 224
212 213 225
212 225 224
226 213 214
213 226 225
227 214 215
214 227 226
219 228 216
216 229 217
229 216 228
217 230 218
230 217 229
228 219 231
220 231 219
231 220 232
221 232 220
222 232 221
222 223 233
233 232 222
223 224 234
234 233 223
224 225 235
224 235 234
236 225 226
225 236 235
237 226 227
226 237 236
231 238 228
228 239 229
239 228 238
229 240 230
240 229 239
238 231 241
231 232 241
242 241 232
242 232 233
233 234 243
242 233 243
234 235 244
243 234 244
235 236 245
245 244 235
236 237 246
246 245 236
241 247 238
238 248 239
248 238 247
239 249 240
249 239 248
247 241 250
242 243 250
242 250 241
243 244 251
243 251 250
244 245 252
252 251 244
245 246 253
253 252 245
254 247 250
247 255 248
254 255 247
248 256 249
256 248 255
251 257 250
254 250 257
252 258 251
257 251 258
252 253 259
259 258 252
254 260 255
254 257 260
255 261 256
261 255 260
258 262 257
262 260 257
258 259 263
263 262 258
264 260 262
261 260 265
264 265 260
262 263 266
264 262 266
264 266 267
264 267 265
</DataArray>
<DataArray type="Int32" Name="offsets" Format="ascii">
3 6 9 12
15 18 21 24
27 30 33 36
39 42 45 48
51 54 57 60
63 66 69 72
75 78 81 84
87 90 93 96
99 102 105 108
111 114 117 120
123 126 129 132
135 138 141 144
147 150 153 156
159 162 165 168
171 174 177 180
183 186 189 192
195 198 201 204
207 210 213 216
219 222 225 228
231 234 237 240
243 246 249 252
255 258 261 264
267 270 273 276
279 282 285 288
291 294 297 300
303 306 309 312
315 318 321 324
327 330 333 336
339 342 345 348
351 354 357 360
363 366 369 372
375 378 381 384
387 390 393 396
399 402 405 408
411 414 417 420
423 426 429 432
435 438 441 444
447 450 453 456
459 462 465 468
471 474 477 480
483 486 489 492
495 498 501 504
507 510 513 516
519 522 525 528
531 534 537 540
543 546 549 552
555 558 561 564
567 570 573 576
579 582 585 588
591 594 597 600
603 606 609 612
615 618 621 624
627 630 633 636
639 642 645 648
651 654 657 660
663 666 669 672
675 678 681 684
687 690 693 696
699 702 705 708
711 714 717 720
723 726 729 732
735 738 741 744
747 750 753 756
759 762 765 768
771 774 777 780
783 786 789 792
795 798 801 804
807 810 813 816
819 822 825 828
831 834 837 840
843 846 849 852
855 858 861 864
867 870 873 876
879 882 885 888
891 894 897 900
903 906 909 912
915 918 921 924
927 930 933 936
939 942 945 948
951 954 957 960
963 966 969 972
975 978 981 984
987 990 993 996
999 1002 1005 1008
1011 1014 1017 1020
1023 1026 1029 1032
1035 1038 1041 1044
1047 1050 1053 1056
1059 1062 1065 1068
1071 1074 1077 1080
1083 1086 1089 1092
1095 1098 1101 1104
1107 1110 1113 1116
1119 1122 1125 1128
1131 1134 1137 1140
1143 1146 1149 1152
1155 1158 1161 1164
1167 1170 1173 1176
1179 1182 1185 1188
1191 1194 1197 1200
1203 1206 1209 1212
1215 1218 1221 1224
1227 1230 1233 1236
1239 1242 1245 1248
1251 1254 1257 1260
1263 1266 1269 1272
1275 1278 1281 1284
1287 1290 1293 1296
1299 1302 1305 1308
1311 1314 1317 1320
1323 1326 1329 1332
1335 1338 1341 1344
1347 1350 1353 1356
1359 1362 1365 1368
1371 1374 1377 1380
1383 1386 1389 1392
1395 1398 1401 1404
1407 1410 1413 1416
1419 1422 1425 1428
</DataArray>
<DataArray type="UInt8" Name="types" Format="ascii">
5 5 5 5 5 5 5 5 5 5 5 5 5 5 5 5
5 5 5 5 5 5 5 5 5 5 5 5 5 5 5 5
5 5 5 5 5 5 5 5 5 5 5 5 5 5 5 5
5 5 5 5 5 5 5 5 5 5 5 5 5 5 5 5
5 5 5 5 5 5 5 5 5 5 5 5 5 5 5 5
5 5 5 5 5 5 5 5 5 5 5 5 5 5 5 5
5 5 5 5 5 5 5 5 5 5 5 5 5 5 5 5
5 5 5 5 5 5 5 5 5 5 5 5 5 5 5 5
5 5 5 5 5 5 5 5 5 5 5 5 5 5 5 5
5 5 5 5 5 5 5 5 5 5 5 5 5 5 5 5
5 5 5 5 5 5 5 5 5 5 5 5 5 5 5 5
5 5 5 5 5 5 5 5 5 5 5 5 5 5 5 5
5 5 5 5 5 5 5 5 5 5 5 5 5 5 5 5
5 5 5 5 5 5 5 5 5 5 5 5 5 5 5 5
5 5 5 5 5 5 5 5 5 5 5 5 5 5 5 5
5 5 5 5 5 5 5 5 5 5 5 5 5 5 5 5
5 5 5 5 5 5 5 5 5 5 5 5 5 5 5 5
5 5 5 5 5 5 5 5 5 5 5 5 5 5 5 5
5 5 5 5 5 5 5 5 5 5 5 5 5 5 5 5
5 5 5 5 5 5 5 5 5 5 5 5 5 5 5 5
5 5 5 5 5 5 5 5 5 5 5 5 5 5 5 5
5 5 5 5 5 5 5 5 5 5 5 5 5 5 5 5
5 5 5 5 5 5 5 5 5 5 5 5 5 5 5 5
5 5 5 5 5 5 5 5 5 5 5 5 5 5 5 5
5 5 5 5 5 5 5 5 5 5 5 5 5 5 5 5
5 5 5 5 5 5 5 5 5 5 5 5 5 5 5 5
5 5 5 5 5 5 5 5 5 5 5 5 5 5 5 5
5 5 5 5 5 5 5 5 5 5 5 5 5 5 5 5
5 5 5 5 5 5 5 5 5 5 5 5 5 5 5 5
5 5 5 5 5 5 5 5 5 5 5 5
</DataArray>
</Cells>
</Piece>
</UnstructuredGrid>
</VTKFile>
