<?xml version="1.0" encoding="UTF-8"?>
<VTKFile type="UnstructuredGrid" version="0.1" byte_order="LittleEndian">
<UnstructuredGrid>
<Piece NumberOfPoints="198" NumberOfCells="542">
<PointData>
<DataArray type="Float64" Name="&#x6e29;&#x5ea6;" Format="ascii">
293.15000000000003
293.15000000000003
293.1499999999999
307.5921610733406
293.15000000000003
293.15
308.1379184365805
308.3367758098029
293.15
307.5810870630297
293.15000000000003
308.36238409337693
318.2802309798342
308.421326264718
293.15
307.92560546881174
293.15000000000003
308.60024929374356
318.28233130830654
308.5304434833484
293.15
308.57556486087566
293.15
308.5282597615324
315.9133798225974
320.10896820219835
320.5455156139281
327.17365147376404
341.42557533220776
327.1154871517673
318.3235838338646
341.42308447403866
327.7364999846832
318.32281627026777
327.48617047674094
339.9133366974548
351.3102613980272
362.25771609223534
351.48009405967406
341.401490106019
351.8883079510279
362.2647358316445
341.39950486455217
351.68761580355743
362.14922409473996
371.76373781783826
380.585776127775
371.7643614937188
362.2576178918189
380.5929980330734
371.77603791580697
362.2590641675647
371.75868021179576
380.5528020940911
388.7208959951202
388.7237288841122
396.1142396622529
380.5871785395785
396.122903868209
388.765621931471
380.59015169059734
388.71994412810096
396.1410455488312
402.74980388987655
402.7531801311098
408.5743089986561
396.11637319411653
408.5842453458344
402.8314691613814
396.12031763465717
402.7496996613158
408.6066425624388
413.57576973264776
417.7036145683938
413.5794028509633
408.57694981237586
417.7141442534549
413.6341610257168
408.5817057020295
413.57584601816717
417.73444832051786
420.95334121376646
423.2811190654027
420.9571801431487
417.70649672458666
423.29209064947526
420.98733836558864
417.71149198532015
420.9534499845316
423.29967079374615
424.6935006587509
425.15753492842526
424.69745302387156
423.28415241702214
424.7022020078393
425.1686644962485
423.28934748053365
424.69363062035785
425.16343472802936
424.6929390320706
423.28000809115605
424.69688768088264
425.1606231152576
424.6760872729283
423.29096713077234
425.16588691998055
424.6930681660312
423.27308237387837
420.9516682968261
417.70148011840087
420.95550421295167
423.28304710157687
420.9097288984139
417.71197080187284
423.28822211202396
420.95178765898754
417.68193062670065
413.5731249662886
413.576770464816
408.5711503999183
417.70440284868977
408.58097089890356
413.5072104543048
417.7093424393833
413.5732873712423
408.53958035204477
402.74608202300584
396.1100171503008
402.74939552104155
408.57403797082276
402.65768622172976
396.11926110724994
408.5785873068166
402.7468243235725
396.06708626910955
388.7270636878597
380.5791169405868
388.7182247743746
396.1122489827839
388.608071224233
380.58620014595317
396.1157596045323
388.61289990219035
380.49659300473445
371.7553440910878
362.2538314557751
371.7561613346306
380.58604296068455
362.2547421249092
371.624229409243
380.5857634960341
371.63976934588123
362.12353496247493
351.96868124969427
351.8571013497608
341.41637862507
362.25937242728196
341.4021967805145
351.4014439823573
362.2537442702069
319.2959571880073
327.750130721438
318.25722381704713
308.58621783216415
308.64883137322124
351.36857239037346
339.8683085602891
308.5598409900611
293.15000000000003
327.53764888813237
341.41467197951977
320.0553295294493
318.2848345418533
308.15910592374627
293.15000000000003
326.6711841271659
341.4096047170787
304.40937459860373
306.1349213661334
293.15000000000003
293.15
293.15000000000003
317.94261262611536
326.9622210191493
317.94106727808855
308.6074599790923
316.65409024343165
293.15000000000003
318.2818556092582
308.3016425644381
293.15000000000003
318.28466316101895
293.14999999999986
308.32698946906396
308.31204240240146
293.15
293.15
293.15
</DataArray>
<DataArray type="Float64" Name="&#x7535;&#x52bf;" Format="ascii">
0.09999999999999999
0.09999999999999999
0.10000000000000002
0.0979599122420707
0.09999999999999999
0.1
0.0978643631663819
0.09783347917802569
0.1
0.09795518374985586
0.09999999999999999
0.09783410821585682
0.09628755668346796
0.09782831682450244
0.1
0.09790011710047847
0.09999999999999999
0.0977973570366601
0.09628802002444035
0.09781460720710576
0.1
0.0978014978692039
0.10000000000000002
0.09781088890746036
0.09667961316347773
0.09600034288426135
0.0959274371595194
0.0948121472862189
0.09218385465854508
0.09482221135095077
0.09629616994283867
0.09218327795256352
0.0947139905906387
0.09629603373006247
0.09475074877843939
0.09247036213475852
0.09014132396234122
0.08761250439895198
0.09010332534483832
0.09217781851138686
0.0900125774609213
0.08761389410902466
0.09217738367873528
0.09005522795447064
0.08764344290809506
0.08514500254884418
0.08254293258656133
0.08514508870577044
0.08761241035953606
0.08254429546635823
0.08513797331869356
0.08761267457244938
0.085143924709729
0.08255575056885835
0.07980970619996518
0.07981023083703265
0.07694017985008937
0.08254319559771524
0.0769417070755045
0.07979183660174728
0.0825437490004592
0.07980954820635469
0.076932054553688
0.07393881345703833
0.07393935975817444
0.07080640932956596
0.07694057563784486
0.07080788818175889
0.07389661064453747
0.07694127397867913
0.0739388180473817
0.07079145704171348
0.06755371721958396
0.0641893518877043
0.06755418156860815
0.07080682005112703
0.06419049388002519
0.06750822197345187
0.07080753228271534
0.06755374441283346
0.06416676840266432
0.060731447408173045
0.05719738815382113
0.06073176384524547
0.06418967794511943
0.057198019895643125
0.06068353377452126
0.06419022164292877
0.060731465728464766
0.057173492633606195
0.05361169882719886
0.04999885987334702
0.05361180865270726
0.0571975679617877
0.05356257538410603
0.049998860979625935
0.057197866392579115
0.053611700748566145
0.04997426164112909
0.046386031887174946
0.04280036477564447
0.04638591115342842
0.049998855453547264
0.046337133495493975
0.04279973419235608
0.04999885085300517
0.04638601391349146
0.04277578846432118
0.039266347675130354
0.03580848545444312
0.03926601870757641
0.0428001757939852
0.03921906654916902
0.035807344500227
0.042799867842947315
0.03926631254349328
0.0357846501313771
0.032444179462587215
0.03244369743789471
0.02919155772470115
0.03580814541006392
0.029190092656367125
0.0323996090973131
0.03580759426823694
0.03244412328884606
0.029169026370339125
0.02605923811588356
0.023057953948152233
0.02605868451813856
0.02919109226514813
0.026018061311136015
0.02305631176799022
0.029190398844401767
0.026059047699982667
0.023037103439732084
0.020192253131127987
0.01745569037713156
0.02018812677743043
0.023057535999351845
0.02015098819589869
0.017454287804123
0.023056887575717968
0.020151276787017922
0.017426606295093
0.014853819219646817
0.012385547299129567
0.014853846007395347
0.017454328004443288
0.012385321324529325
0.01481807612992256
0.017454331494664025
0.014822321548152188
0.012349740652050835
0.010004975105957376
0.00997938451720688
0.007815553610291166
0.012384394782720928
0.007818748196499808
0.009880153991033343
0.01238548708014728
0.003864683760080269
0.00530097181445996
0.0037160059738669906
0.0022006326093775416
0.0022043944958181376
0.009872905635238948
0.007523859360905057
0.0022124580439403653
0
0.005257779975750406
0.007815877735199603
0.003990672541965856
0.00371073520450694
0.0021412065716040966
0
0.005112275856687298
0.00781699371115331
0.001588273720961344
0.0018363727563621185
0
0
0
0.0036289194681594704
0.005156888921738186
0.0036293757045722805
0.002210524963234415
0.003446852738462221
0
0.0037107292730987553
0.0021630516184614626
0
0.0037103250565683316
0
0.002169763849987651
0.002161925319996885
0
0
0
</DataArray>
</PointData>
<CellData/>
<Points>
<DataArray type="Float64" NumberOfComponents="3" Format="ascii">
0 0.03346384555647188 0.028919786655605743
0 0.06699152153349397 0.028866586156849904
0 0.04997796345553534 0.0653100604431068
0.03132536707170786 0.05000867112194434 0.02744052802201989
0 0.049999999999999996 0
0 0 0
0.03262901650014264 0.0343856177607742 0
0.033078591522647825 0.06568221682549213 0
0 0.1 0
0.031342127716444686 0.02522379287653529 0.04153744063548267
0 0 0.05
0.03310725276485819 0 0.03435069594886301
0.055555555555555566 0 0
0.03322010588339722 0 0.06572271400200418
0 0 0.1
0.0321311551637365 0.07439686598539533 0.04667173850200385
0 0.10000000000000002 0.05
0.03364367129402055 0.1 0.03445989185508397
0.0555555555555555 0.1 0
0.03344561026813281 0.1 0.06594774166438626
0 0.1 0.1
0.03358723460295153 0.0657544263059339 0.1
0 0.049999999999999996 0.09999999999999998
0.033466885950830375 0.034454845626954576 0.1
0.05004867593372504 0.049915938941709814 0.06358365023323899
0.059702202631787896 0.03069547451187852 0.027136164079259766
0.06072216071641075 0.07003478751697405 0.027260909558690694
0.07625047467559781 0.049336028499072315 0
0.11111111111111113 0 0
0.07611218957994012 0 0.04996833690235083
0.055555555555555566 0 0.10000000000000002
0.111111111111111 0.10000000000000002 0
0.07759139533398184 0.1 0.05051975551821926
0.0555555555555555 0.1 0.1
0.07703728833817536 0.049925765137313366 0.1
0.10735821874954357 0.049999999999999885 0.04987943386117262
0.13666782403084113 0.049033347965044605 0
0.16666666666666663 0 0
0.1371250421651046 0 0.04923911220412542
0.11111111111111113 0 0.10000000000000002
0.1382217360482079 0.1 0.049735672416098047
0.16666666666666657 0.10000000000000002 0
0.111111111111111 0.10000000000000002 0.10000000000000002
0.13769424550491607 0.050115532588822856 0.1
0.16633309024632617 0.05000000000000013 0.048767731726378084
0.1944444444444444 0.047799791036657775 0
0.22222222222222224 0 0
0.1944444444444444 0 0.047799791036657775
0.16666666666666663 0 0.09999999999999999
0.22222222222222204 0.1 0
0.1945041799826035 0.1 0.04869450985359178
0.16666666666666657 0.10000000000000002 0.10000000000000002
0.19444444444444442 0.04779979103665782 0.1
0.22209829080236948 0.050000000000000176 0.04850683689508803
0.24999999999999997 0.04779979103665778 0
0.24999999999999997 0 0.047799791036657775
0.2777777777777778 0 0
0.22222222222222224 0 0.09999999999999999
0.2777777777777778 0.10000000000000002 0
0.25017142716126983 0.1 0.04869209309093862
0.22222222222222204 0.1 0.1
0.25 0.04779979103665774 0.1
0.2778634913584128 0.05000000000000022 0.04824594206379798
0.30555555555555564 0.04779979103665782 0
0.30555555555555564 0 0.0477997910366578
0.3333333333333335 0 0
0.2777777777777778 0 0.09999999999999999
0.33333333333333315 0.1 0
0.3059335866616905 0.1 0.048669716328863175
0.2777777777777778 0.10000000000000002 0.10000000000000002
0.3055555555555556 0.0477997910366578 0.1
0.3334706979001845 0.050000000000000155 0.04824034787327916
0.3611111111111112 0.047799791036657754 0
0.388888888888889 0 0
0.36111111111111127 0 0.04779979103665774
0.3333333333333335 0 0.1
0.38888888888888873 0.09999999999999999 0
0.36148914221724615 0.1 0.048669716328863195
0.33333333333333315 0.1 0.1
0.3611111111111112 0.04779979103665777 0.1
0.38907790444195633 0.050000000000000086 0.04823475368276034
0.41666666666666674 0.047799791036657706 0
0.44444444444444436 0 0
0.41666666666666674 0 0.047799791036657706
0.388888888888889 0 0.10000000000000002
0.4444444444444443 0.1 0
0.41704469777280173 0.1 0.048669716328863306
0.38888888888888873 0.09999999999999999 0.09999999999999999
0.41666666666666663 0.04779979103665772 0.1
0.444633459997512 0.049999999999999906 0.04823475368276044
0.47222222222222215 0.0477997910366578 0
0.5 0 0
0.47222222222222215 0 0.0477997910366578
0.44444444444444436 0 0.09999999999999998
0.4726002533283573 0.1 0.04866971632886328
0.4999999999999999 0.1 0
0.4444444444444443 0.1 0.1
0.47222222222222215 0.04779979103665779 0.1
0.5001890155530677 0.049999999999999725 0.04823475368276054
0.5277777777777778 0.04779979103665777 0
0.5555555555555556 0 0
0.5277777777777778 0 0.04779979103665777
0.5 0 0.1
0.5281558088839133 0.1 0.04866971632886342
0.5555555555555556 0.10000000000000002 0
0.4999999999999999 0.1 0.1
0.5277777777777778 0.04779979103665777 0.1
0.5557445711086483 0.049999999999999746 0.04823475368276671
0.5833333333333333 0.04779979103665774 0
0.611111111111111 0 0
0.5833333333333333 0 0.04779979103665774
0.5555555555555556 0 0.1
0.5837113644395692 0.1 0.0486697163288885
0.6111111111111109 0.1 0
0.5555555555555556 0.10000000000000002 0.10000000000000002
0.5833333333333333 0.04779979103665774 0.1
0.611300126664229 0.04999999999999976 0.048234753682772885
0.6388888888888888 0.04779979103665782 0
0.6388888888888888 0 0.04779979103665782
0.6666666666666667 0 0
0.611111111111111 0 0.09999999999999999
0.6666666666666665 0.1 0
0.6392669200086722 0.1 0.04866971632687757
0.6111111111111109 0.1 0.1
0.6388888888888888 0.04779979103665782 0.1
0.6668556807441235 0.04999999999999987 0.048234752241670606
0.6944444444444444 0.04779979103665772 0
0.7222222222222222 0 0
0.6944444444444444 0 0.04779979103665771
0.6666666666666667 0 0.1
0.6948224696480353 0.1 0.048669710564478275
0.7222222222222221 0.09999999999999999 0
0.6666666666666665 0.1 0.1
0.6944444444444444 0.04779979103665774 0.1
0.722411234824018 0.049999999999999975 0.04823475080056832
0.7499622075741864 0.047832359794668766 0
0.7777777777777779 0 0
0.75 0 0.047799791036657824
0.7222222222222222 0 0.1
0.7503769210843698 0.1 0.048669258884711984
0.7777777777777778 0.1 0
0.7222222222222221 0.09999999999999999 0.09999999999999999
0.7503694174188127 0.04836743541075669 0.1
0.778068076615198 0.04956589318899962 0.04911737540028428
0.8055568908997293 0.04799570941240502 0
0.8333333333333334 0 0
0.8055555555555556 0 0.04779979103665772
0.7777777777777779 0 0.1
0.8333333333333334 0.1 0
0.8059504452509727 0.1 0.04870513360964714
0.7777777777777778 0.1 0.1
0.8059036223471204 0.049036005163570116 0.1
0.8337249184063776 0.04913178637799926 0.05000000000000025
0.8615462144656345 0.049227567592427794 0
0.8618507210097559 0 0.049333501861260176
0.888888888888889 0 0
0.8333333333333334 0 0.1
0.888888888888889 0.10000000000000002 0
0.8630617950624426 0.1 0.049908320777741134
0.8333333333333334 0.1 0.1
0.9421837478887398 0.034330044121074745 0.023987724242940767
0.9222881621709148 0.04977141390318328 0
0.9444444444444444 0 0
0.9663853717989486 0.034189931922853106 0
0.9662812501427035 0.06573776916354239 0
0.8631499965865281 0.05026589543515403 0.1
0.8927190793787216 0.05001865466916889 0.04999999999999978
0.9663420659086017 0 0.034229899752740586
1 0 0
0.9228296692736769 0 0.049666496928797155
0.888888888888889 0 0.1
0.9404163635683047 0.07410226360152668 0.028788015642524905
0.9444444444444444 0.1 0
0.967306230055884 0.1 0.03456785658908697
1 0.1 0
0.9248620121645184 0.1 0.05038571783202282
0.888888888888889 0.10000000000000002 0.10000000000000002
0.9755901561841953 0.06799827650730902 0.03337881362064041
0.9718202000688179 0.020992686770827895 0.03733026233239874
1 0.0351254097525962 0.02782043742455052
1.0000000000000002 0.05 0
1 0.06508577777215671 0.02783262738685938
0.9454019920669028 0.025028001029292025 0.07713141025538468
0.9242059529821691 0.050217595103913264 0.1
0.9454019920669029 0.07502800102929223 0.0771314102553849
0.9662926510643403 0 0.06545663060507638
0.9481993228366603 0.049149532914484935 0.0544592026381878
1.0000000000000002 0 0.05
0.9444444444444444 0 0.1
0.966983922351034 0.1 0.06582589237959481
1.0000000000000002 0.10000000000000002 0.05
0.9444444444444444 0.1 0.1
1 0.05009334944799949 0.05852564102153982
0.9669082296179494 0.03461314714981368 0.1
0.9669789524032024 0.06590688218922802 0.1
1 0 0.1
1 0.1 0.1
1.0000000000000002 0.05 0.10000000000000002
</DataArray>
</Points>
<Cells>
<DataArray type="Int32" Name="connectivity" Format="ascii">
3 2 1 0
4 3 1 0
6 5 0 4
0 6 4 3
7 1 4 3
8 7 1 4
3 4 7 6
10 2 9 0
3 2 0 9
5 11 0 10
0 10 11 9
11 6 5 0
12 5 11 6
2 13 10 9
13 10 9 11
14 2 13 10
2 3 1 15
2 16 15 1
17 8 1 16
7 17 8 1
16 1 17 15
17 8 18 7
15 16 19 17
2 16 19 15
2 20 19 16
20 2 19 21
20 2 21 22
2 14 23 22
21 2 23 22
2 14 13 23
2 24 21 23
6 11 12 25
17 7 18 26
27 3 7 6
3 27 7 26
27 18 7 26
12 27 6 25
27 3 6 25
28 27 12 25
24 29 13 9
9 29 13 11
29 28 12 25
29 12 11 25
29 25 11 9
14 23 30 13
24 29 30 13
30 24 13 23
27 31 18 26
32 15 19 17
18 32 17 26
31 32 18 26
32 24 19 15
26 32 17 15
24 33 19 21
32 24 33 19
21 20 33 19
24 30 34 23
29 30 34 24
24 34 21 23
33 24 34 21
33 32 34 24
35 28 25 27
28 35 25 29
35 31 27 26
35 31 26 32
31 35 27 36
35 28 27 36
38 36 37 28
38 35 36 28
28 35 29 38
35 39 29 38
34 29 39 30
39 29 34 35
35 31 32 40
35 40 36 31
36 40 41 31
42 35 32 40
32 34 42 33
42 34 32 35
39 35 34 43
40 35 43 42
43 35 38 39
35 42 34 43
38 44 37 36
36 41 40 44
41 44 36 45
44 37 36 45
47 45 46 37
37 44 47 45
37 44 38 47
43 38 48 39
44 48 38 47
48 44 38 43
50 45 41 49
41 45 50 44
44 41 40 50
44 51 50 40
40 43 51 42
44 43 51 40
52 51 50 44
47 44 48 52
51 44 52 43
48 44 43 52
53 46 47 45
45 49 50 53
46 53 54 45
53 49 54 45
46 53 55 54
53 46 55 47
55 54 56 46
52 47 57 48
57 53 55 47
53 47 57 52
59 54 49 58
49 54 59 53
49 53 59 50
53 60 59 50
60 52 50 53
52 50 51 60
61 60 59 53
60 53 61 52
53 57 61 52
55 53 57 61
55 62 56 54
54 58 59 62
62 56 54 63
58 62 54 63
56 62 55 64
64 63 65 56
56 62 64 63
61 55 66 57
62 66 55 64
62 55 66 61
68 63 58 67
63 68 58 62
58 62 68 59
61 59 60 69
69 61 59 62
62 69 68 59
62 69 61 70
70 69 68 62
64 62 66 70
66 62 61 70
63 67 68 71
64 71 65 63
67 71 63 72
71 65 63 72
74 72 73 65
65 71 64 74
65 71 74 72
70 64 75 66
71 75 64 74
71 64 75 70
77 72 67 76
67 71 77 68
72 77 67 71
71 78 77 68
70 68 69 78
78 70 68 71
74 71 75 79
79 78 77 71
75 71 70 79
71 78 70 79
72 76 77 80
74 80 73 72
76 80 72 81
80 73 72 81
83 81 82 73
73 80 83 81
73 80 74 83
79 74 84 75
80 74 84 79
80 84 74 83
86 81 76 85
81 86 76 80
76 80 86 77
87 79 77 80
79 77 78 87
80 87 86 77
83 80 84 88
80 87 79 88
84 80 79 88
88 87 86 80
81 85 86 89
83 89 82 81
85 89 81 90
89 82 81 90
92 90 91 82
82 89 92 90
82 89 83 92
89 93 83 92
88 83 93 84
89 83 93 88
85 89 94 86
90 94 85 89
94 90 85 95
88 86 87 96
89 96 94 86
96 88 86 89
92 89 93 97
97 96 94 89
89 96 88 97
93 89 88 97
92 98 91 90
90 95 94 98
95 98 90 99
98 91 90 99
101 99 100 91
91 98 101 99
91 98 92 101
97 92 102 93
98 102 92 101
98 92 102 97
95 98 103 94
99 103 95 98
103 99 95 104
105 97 94 98
97 94 96 105
98 105 103 94
101 98 102 106
106 105 103 98
98 105 97 106
102 98 97 106
99 104 103 107
101 107 100 99
104 107 99 108
107 100 99 108
110 108 109 100
100 107 101 110
100 107 110 108
106 101 111 102
107 101 111 106
107 111 101 110
108 112 104 107
112 108 104 113
104 107 112 103
106 103 105 114
107 114 112 103
114 106 103 107
111 107 106 115
110 107 111 115
115 114 112 107
107 114 106 115
108 113 112 116
110 116 109 108
116 109 108 117
113 116 108 117
109 116 110 118
118 117 119 109
109 116 118 117
115 110 120 111
116 110 120 115
116 120 110 118
122 117 113 121
117 122 113 116
113 116 122 112
123 115 112 116
115 112 114 123
116 123 122 112
118 116 120 124
120 116 115 124
124 123 122 116
116 123 115 124
117 121 122 125
118 125 119 117
121 125 117 126
125 119 117 126
128 126 127 119
119 125 128 126
119 125 118 128
125 118 129 124
124 118 129 120
125 129 118 128
121 125 130 122
130 126 121 131
126 130 121 125
132 124 122 125
124 122 123 132
125 132 130 122
129 125 124 133
125 132 124 133
128 125 129 133
133 132 130 125
128 134 127 126
126 131 130 134
131 134 126 135
134 127 126 135
137 135 136 127
127 134 137 135
127 134 128 137
133 128 138 129
134 138 128 137
134 128 138 133
131 134 139 130
139 135 131 140
135 139 131 134
133 130 132 141
141 133 130 134
134 141 139 130
137 134 138 142
142 141 139 134
134 141 133 142
134 138 142 133
143 136 137 135
135 140 139 143
140 143 135 144
143 136 135 144
144 146 136 145
136 143 137 146
136 143 146 144
137 142 138 147
143 147 137 146
143 137 147 142
149 144 140 148
140 143 149 139
140 144 149 143
142 139 141 150
142 139 150 143
143 150 149 139
143 150 142 151
149 151 150 143
146 147 151 143
143 147 151 142
145 152 144 146
144 152 148 149
148 152 144 153
145 152 153 144
152 145 153 154
153 154 145 155
152 145 154 146
152 156 146 154
146 151 147 156
156 146 151 152
158 153 148 157
148 158 152 153
148 152 158 149
151 149 159 152
151 149 150 159
152 159 158 149
155 162 161 160
161 162 163 160
161 164 160 163
152 156 165 151
159 152 165 151
159 152 158 165
156 165 154 152
155 166 160 161
155 166 161 153
153 166 154 155
166 157 161 153
166 153 158 157
162 167 163 160
168 167 163 162
169 155 160 162
166 155 169 154
166 155 160 169
169 162 160 167
154 165 156 170
154 166 165 170
170 166 169 154
172 161 164 171
157 161 172 171
161 164 171 160
166 157 171 161
164 173 172 171
174 173 172 164
157 166 175 158
175 157 172 171
157 166 171 175
175 172 173 171
166 158 165 176
165 158 159 176
166 176 175 158
160 177 163 164
164 174 173 177
168 163 167 178
169 160 178 167
177 179 163 164
168 163 179 180
164 179 163 180
168 163 178 179
179 164 177 181
164 174 181 180
174 164 181 177
179 164 181 180
170 166 182 169
166 170 183 165
176 166 183 165
166 170 182 183
176 166 184 183
166 176 184 175
185 169 178 167
169 186 185 178
186 169 185 182
168 187 178 167
187 185 178 167
187 168 178 179
170 183 188 182
169 188 185 182
169 170 188 182
189 186 175 171
175 186 189 184
189 171 175 173
171 189 177 173
190 177 189 173
174 190 177 181
190 174 177 173
191 175 189 184
183 176 191 184
176 175 191 184
185 192 187 178
190 192 177 181
192 189 190 177
177 192 179 181
192 187 178 179
178 177 192 179
188 183 193 182
184 193 183 182
193 185 188 182
192 184 193 194
183 191 194 184
189 194 191 184
183 193 184 194
195 193 185 188
192 195 185 187
195 192 185 193
196 191 189 194
196 192 189 190
192 196 189 194
195 192 193 197
192 196 194 197
192 194 193 197
6 0 9 3
6 0 11 9
1 7 15 3
1 7 17 15
21 2 19 15
21 19 24 15
2 13 24 23
13 2 24 9
24 2 3 9
2 24 3 15
21 2 15 24
6 11 25 9
25 6 9 3
25 24 3 9
17 7 26 15
15 7 26 3
24 26 3 15
24 26 25 3
3 27 26 25
24 29 9 25
32 24 15 26
27 35 26 25
24 35 25 26
32 35 34 24
24 35 29 25
35 29 34 24
35 24 32 26
40 43 35 44
43 38 35 44
36 40 35 44
38 36 35 44
45 50 44 53
50 52 44 53
52 47 44 53
47 45 44 53
55 61 62 53
55 54 53 62
61 59 62 53
54 59 53 62
64 70 71 62
68 70 62 71
63 64 71 62
63 68 62 71
77 79 71 80
74 79 80 71
72 74 80 71
72 77 71 80
81 83 89 80
86 88 80 89
83 88 89 80
86 81 89 80
92 97 98 89
94 90 98 89
94 97 89 98
90 92 98 89
99 101 107 98
103 106 98 107
103 99 107 98
101 106 107 98
110 115 116 107
112 108 116 107
112 115 107 116
108 110 116 107
118 124 125 116
117 118 125 116
122 124 116 125
122 117 125 116
130 126 134 125
130 133 125 134
128 133 134 125
126 128 134 125
142 137 134 143
139 135 143 134
135 137 143 134
139 142 134 143
149 151 143 152
151 146 143 152
149 144 152 143
144 146 152 143
154 165 166 152
158 153 166 152
153 154 166 152
158 165 152 166
171 166 161 160
164 173 171 177
164 160 177 171
169 166 186 160
166 175 186 171
171 166 160 186
160 177 171 186
167 163 160 178
177 163 178 160
178 177 160 186
169 186 178 160
163 177 178 179
166 169 186 182
183 166 186 182
175 166 186 184
166 183 186 184
183 184 182 186
189 186 171 177
192 185 186 178
189 192 186 177
185 192 186 182
192 189 186 184
184 192 182 186
192 178 186 177
192 185 193 182
192 184 182 193
189 192 194 184
</DataArray>
<DataArray type="Int32" Name="offsets" Format="ascii">
4 8 12 16
20 24 28 32
36 40 44 48
52 56 60 64
68 72 76 80
84 88 92 96
100 104 108 112
116 120 124 128
132 136 140 144
148 152 156 160
164 168 172 176
180 184 188 192
196 200 204 208
212 216 220 224
228 232 236 240
244 248 252 256
260 264 268 272
276 280 284 288
292 296 300 304
308 312 316 320
324 328 332 336
340 344 348 352
356 360 364 368
372 376 380 384
388 392 396 400
404 408 412 416
420 424 428 432
436 440 444 448
452 456 460 464
468 472 476 480
484 488 492 496
500 504 508 512
516 520 524 528
532 536 540 544
548 552 556 560
564 568 572 576
580 584 588 592
596 600 604 608
612 616 620 624
628 632 636 640
644 648 652 656
660 664 668 672
676 680 684 688
692 696 700 704
708 712 716 720
724 728 732 736
740 744 748 752
756 760 764 768
772 776 780 784
788 792 796 800
804 808 812 816
820 824 828 832
836 840 844 848
852 856 860 864
868 872 876 880
884 888 892 896
900 904 908 912
916 920 924 928
932 936 940 944
948 952 956 960
964 968 972 976
980 984 988 992
996 1000 1004 1008
1012 1016 1020 1024
1028 1032 1036 1040
1044 1048 1052 1056
1060 1064 1068 1072
1076 1080 1084 1088
1092 1096 1100 1104
1108 1112 1116 1120
1124 1128 1132 1136
1140 1144 1148 1152
1156 1160 1164 1168
1172 1176 1180 1184
1188 1192 1196 1200
1204 1208 1212 1216
1220 1224 1228 1232
1236 1240 1244 1248
1252 1256 1260 1264
1268 1272 1276 1280
1284 1288 1292 1296
1300 1304 1308 1312
1316 1320 1324 1328
1332 1336 1340 1344
1348 1352 1356 1360
1364 1368 1372 1376
1380 1384 1388 1392
1396 1400 1404 1408
1412 1416 1420 1424
1428 1432 1436 1440
1444 1448 1452 1456
1460 1464 1468 1472
1476 1480 1484 1488
1492 1496 1500 1504
1508 1512 1516 1520
1524 1528 1532 1536
1540 1544 1548 1552
1556 1560 1564 1568
1572 1576 1580 1584
1588 1592 1596 1600
1604 1608 1612 1616
1620 1624 1628 1632
1636 1640 1644 1648
1652 1656 1660 1664
1668 1672 1676 1680
1684 1688 1692 1696
1700 1704 1708 1712
1716 1720 1724 1728
1732 1736 1740 1744
1748 1752 1756 1760
1764 1768 1772 1776
1780 1784 1788 1792
1796 1800 1804 1808
1812 1816 1820 1824
1828 1832 1836 1840
1844 1848 1852 1856
1860 1864 1868 1872
1876 1880 1884 1888
1892 1896 1900 1904
1908 1912 1916 1920
1924 1928 1932 1936
1940 1944 1948 1952
1956 1960 1964 1968
1972 1976 1980 1984
1988 1992 1996 2000
2004 2008 2012 2016
2020 2024 2028 2032
2036 2040 2044 2048
2052 2056 2060 2064
2068 2072 2076 2080
2084 2088 2092 2096
2100 2104 2108 2112
2116 2120 2124 2128
2132 2136 2140 2144
2148 2152 2156 2160
2164 2168
</DataArray>
<DataArray type="UInt8" Name="types" Format="ascii">
10 10 10 10 10 10 10 10 10 10 10 10 10 10 10 10
10 10 10 10 10 10 10 10 10 10 10 10 10 10 10 10
10 10 10 10 10 10 10 10 10 10 10 10 10 10 10 10
10 10 10 10 10 10 10 10 10 10 10 10 10 10 10 10
10 10 10 10 10 10 10 10 10 10 10 10 10 10 10 10
10 10 10 10 10 10 10 10 10 10 10 10 10 10 10 10
10 10 10 10 10 10 10 10 10 10 10 10 10 10 10 10
10 10 10 10 10 10 10 10 10 10 10 10 10 10 10 10
10 10 10 10 10 10 10 10 10 10 10 10 10 10 10 10
10 10 10 10 10 10 10 10 10 10 10 10 10 10 10 10
10 10 10 10 10 10 10 10 10 10 10 10 10 10 10 10
10 10 10 10 10 10 10 10 10 10 10 10 10 10 10 10
10 10 10 10 10 10 10 10 10 10 10 10 10 10 10 10
10 10 10 10 10 10 10 10 10 10 10 10 10 10 10 10
10 10 10 10 10 10 10 10 10 10 10 10 10 10 10 10
10 10 10 10 10 10 10 10 10 10 10 10 10 10 10 10
10 10 10 10 10 10 10 10 10 10 10 10 10 10 10 10
10 10 10 10 10 10 10 10 10 10 10 10 10 10 10 10
10 10 10 10 10 10 10 10 10 10 10 10 10 10 10 10
10 10 10 10 10 10 10 10 10 10 10 10 10 10 10 10
10 10 10 10 10 10 10 10 10 10 10 10 10 10 10 10
10 10 10 10 10 10 10 10 10 10 10 10 10 10 10 10
10 10 10 10 10 10 10 10 10 10 10 10 10 10 10 10
10 10 10 10 10 10 10 10 10 10 10 10 10 10 10 10
10 10 10 10 10 10 10 10 10 10 10 10 10 10 10 10
10 10 10 10 10 10 10 10 10 10 10 10 10 10 10 10
10 10 10 10 10 10 10 10 10 10 10 10 10 10 10 10
10 10 10 10 10 10 10 10 10 10 10 10 10 10 10 10
10 10 10 10 10 10 10 10 10 10 10 10 10 10 10 10
10 10 10 10 10 10 10 10 10 10 10 10 10 10 10 10
10 10 10 10 10 10 10 10 10 10 10 10 10 10 10 10
10 10 10 10 10 10 10 10 10 10 10 10 10 10 10 10
10 10 10 10 10 10 10 10 10 10 10 10 10 10 10 10
10 10 10 10 10 10 10 10 10 10 10 10 10 10
</DataArray>
</Cells>
</Piece>
</UnstructuredGrid>
</VTKFile>
