<?xml version="1.0" encoding="UTF-8"?>
<VTKFile type="UnstructuredGrid" version="0.1" byte_order="LittleEndian">
<UnstructuredGrid>
<Piece NumberOfPoints="268" NumberOfCells="476">
<PointData>
<DataArray type="Float64" Name="&#x6e29;&#x5ea6;" Format="ascii">
295.9221496401564
293.15
293.15
293.15
298.8308787069846
293.15
301.23139514818416
293.15
300.033523500369
293.15
302.72570246312335
293.15
301.62354062394115
293.15
303.3208576319194
293.15
303.31802486545126
293.15
303.184221794535
293.15
302.741758023576
293.15
301.56769409712047
293.15
304.43584658085206
293.15
300.0341872692474
293.15
295.93830742179017
293.15
305.2299207785491
293.15
293.15
305.7998008820986
293.15
298.8818460372181
293.15
306.0407411521639
293.15
301.5817558294418
293.15
306.19384317263035
293.15
303.63726436245094
293.15
306.2494543164509
293.15
304.71364496390976
293.15
306.20054082488747
293.15
305.4921925731251
293.15
306.0435451647026
293.15
305.780152098745
293.15
305.97576444725854
293.15
305.3542489989871
293.15
304.47295562523004
293.15
306.2879374248835
293.15
303.3029513994097
293.15
301.4145174961464
293.15
306.46367953181715
293.15
298.93206620848554
293.15
295.94766247467453
293.15
306.5205088897376
293.15
293.15
306.4627835833583
293.15
293.15
300.0381506481778
306.28222706939385
293.15
293.15
301.674842979934
305.95556051158496
293.15
293.15
302.89059808904625
305.43967634831967
293.15
303.4443654461856
293.15
304.66090873892676
293.15
303.3939595957015
293.15
303.4386540003793
293.15
302.7567892320769
293.15
301.7109855145846
293.15
301.32844385235126
293.15
300.1413300210316
293.15
299.01212596261917
293.15
295.9706541824169
293.15
305.5759804243166
309.10871680772533
306.4630153883871
310.85332933540855
315.855356605322
312.76998644639315
309.53952868453
311.39958524155446
310.8936133264311
317.4266733781692
321.5600837794098
318.78821422988676
317.04349627070263
312.28431711077747
309.36071553977854
306.5712409804973
317.45990072321564
316.0536848957661
322.3920552182537
325.7342966533756
323.5434106353212
320.1284463792467
314.18358764806095
305.8258332296377
313.1552396432922
321.5966790963684
319.0000319809525
325.83521037498616
328.1705243000968
328.1856121669363
326.24654622673233
322.18352900497416
315.4477264779443
310.0349325425835
317.4521538139397
323.9180393336388
328.3406097520073
330.42466517694555
330.4660116081213
328.20979748095465
323.5216908989117
316.16472275747014
312.8171004047604
320.60290282950297
326.4817823679055
330.62375541844904
332.49209465066775
332.18684086054236
329.51954470938864
324.3570590757724
316.59705383607394
314.5960881011874
322.58702908252695
328.5275092930205
332.3697168149153
334.00245844934426
333.35719576029027
330.3208062592552
324.8216491113696
316.8046571535852
315.7720980144463
323.90883141605383
329.8478041722103
333.5424322771862
334.9536267224858
334.0242050760276
330.70570374275525
324.9730280655826
316.81601363000937
316.5336540216754
324.77066905134785
330.6645021479755
334.21436702507225
316.606843996481
335.4115457997527
334.2423499704376
330.70873436885614
324.8269841984018
316.99494290476036
325.25037865519886
331.05629822295754
334.43483969804356
316.1820877128725
324.3702577578942
335.4164544026094
334.0329464960234
330.3300519649502
315.4775305263347
317.2170828047456
325.4071710116386
331.0588013596734
334.22307368858486
323.5604058122846
329.5358099546932
334.9694907863486
333.3770912335096
314.3333211738463
322.2959700344422
312.4903895239949
317.2165182087865
325.2506611360727
330.6710446493784
333.56075854979343
328.26549970480227
332.22212067275694
334.0321217758735
320.3905792353153
326.38575452860715
317.26173969813834
309.7926228186806
305.54001551164157
316.9911926866123
324.76487926861324
329.8587481356158
332.39553336591615
330.4942641978218
332.5370224713278
328.25000282161227
323.8477701995666
319.0572059817733
313.1081066956679
306.6342933642784
316.51479800314746
323.8994047125068
328.5456842978775
330.6583203935349
330.4758008995347
328.2032862760163
325.7874024655239
321.7582299994469
316.17724222761507
309.58399631155277
315.7290325596545
322.55094713936927
326.5415158202946
328.3490914171187
325.83743372512293
322.52948411707143
317.63025956953646
311.0695185954592
314.5312590076183
320.5510668097799
323.8056391463902
321.69347414522053
317.62596680714324
311.57001301812846
312.64937115543665
317.31417952218504
318.999636306109
316.0665635972296
310.98677868920436
310.016217876078
313.0977056403185
309.27034645404615
306.7434326467821
305.7311092830123
</DataArray>
<DataArray type="Float64" Name="&#x7535;&#x52bf;" Format="ascii">
0.09660901067930422
0.10000000000000002
0.1
0.09473684210526316
0.0962035269611836
0.10000000000000002
0.09593160558157134
0.10000000000000002
0.09210468433007436
0.08947368421052632
0.0958169837785371
0.10000000000000002
0.08685730343475352
0.08421052631578947
0.095826535006325
0.10000000000000002
0.09583219824302568
0.10000000000000002
0.0816802863064251
0.07894736842105264
0.09582716625509831
0.10000000000000002
0.09580836128550897
0.10000000000000002
0.07643300045111003
0.0736842105263158
0.09527620561574825
0.10000000000000002
0.09640773785206558
0.1
0.07114898227011625
0.06842105263157894
0.09473684210526316
0.06583556278450654
0.06315789473684211
0.09202564153931646
0.08947368421052633
0.060567941939736185
0.057894736842105256
0.08705363344794913
0.08421052631578947
0.05529890058032585
0.05263157894736842
0.08172339800225335
0.07894736842105264
0.0500361576336693
0.04736842105263158
0.07640450868653344
0.0736842105263158
0.044773435092967544
0.042105263157894736
0.0710984967173608
0.06842105263157895
0.03951629610802626
0.0368421052631579
0.03426450208591899
0.03157894736842106
0.06580754687043024
0.06315789473684211
0.0290004426320887
0.02631578947368421
0.023700261900828065
0.021052631578947368
0.06053745357011744
0.05789473684210527
0.01844339860322328
0.01578947368421053
0.013190732805481095
0.010526315789473677
0.05527446558610438
0.05263157894736844
0.00802779053291859
0.0052631578947368385
0.0036077683647274027
0
0.05001487662813058
0.04736842105263159
0
0.04475746140719316
0.04210526315789475
0
0.004747893395981637
0.039500555639915995
0.036842105263157905
0
0.004288545705481012
0.034242444967739476
0.03157894736842106
0
0.00425257579497967
0.02898375506351922
0.02631578947368422
0.0042294359528789564
0
0.023730369852799613
0.021052631578947368
0.004205320778989697
0
0.01852978719861202
0.015789473684210534
0.0041899116924084025
0
0.01346087214517601
0.010526315789473696
0.004110306762062762
0
0.00803378024044975
0.005263157894736861
0.003905189282984622
0
0.0034404254836342242
0
0.09186332171407972
0.09162338138845637
0.0883306518170687
0.091660987289037
0.08750744127865538
0.08695994868885756
0.08403307268293471
0.09169804884435383
0.09169460876552715
0.08757759157351062
0.08343787997464004
0.08371533205368023
0.08152230165790213
0.07896130458704859
0.09164669698056221
0.09190641805396112
0.08759900544718106
0.08756488662886147
0.08356222444623713
0.0796258270719535
0.07910633167787619
0.07635782025701553
0.07374134631707387
0.08962517380689507
0.08708576387159048
0.08352682415101435
0.08383642055729361
0.07960621845912325
0.07657806600249041
0.07541603884425906
0.07366591190339981
0.07108009296067667
0.06846911243615977
0.08440338031280505
0.08162557383730491
0.07911918488374593
0.07540891788287063
0.07283332775424563
0.07068671395289226
0.06842296192730601
0.06582041935648882
0.06320192629576966
0.07905552087146289
0.07636172377338624
0.07361299996694037
0.07070365552798169
0.068113259170912
0.06566377990728235
0.06317875996631395
0.0605647991858859
0.05793933334976598
0.07374083016633272
0.07108814537735965
0.0683234092235107
0.06563954427946807
0.06304822147613169
0.06050078597319306
0.05793481648638058
0.055308974574903934
0.052678743908606156
0.06845257218347532
0.065783416254997
0.06311122710344258
0.060476875845093196
0.0578776983262631
0.05528745164476628
0.052679596486136716
0.05005566036290882
0.04742753649094288
0.06317546823200972
0.06053341524577923
0.057895610676993246
0.05527655006424071
0.04217984924049792
0.052669151078327724
0.05005878828179722
0.04743728395538055
0.044809291810238495
0.05791186491111388
0.055286668323985204
0.05266788206554494
0.050057746345923436
0.036932621807720445
0.0395672727169147
0.04745142253878188
0.044834185553525085
0.042195375286719405
0.03167498299043748
0.052656261959163154
0.05004293495390948
0.04743748288123564
0.044840867349852535
0.03432621840876742
0.03696190254770949
0.042246499241582254
0.039628492034189174
0.02640555727636267
0.02907836749650886
0.021115167567856405
0.04740419611607579
0.04480262947266218
0.04221482696416503
0.03964477968586413
0.03174221093977233
0.0344701330041376
0.03708172112084578
0.02378209727053821
0.026539138093175135
0.018594996489079283
0.015811648456274568
0.010545769469640106
0.04215590213652167
0.03956893512800288
0.03700790454578034
0.03449284063393979
0.02941086667305436
0.032012916425017045
0.024588657406611078
0.02099141435607848
0.0163363397742314
0.012979825802367144
0.008217752429162846
0.03690874255094212
0.03433633802394633
0.031805865311049335
0.0294196109590948
0.027265338261424066
0.02347043120090242
0.02038189995119991
0.016716771507714178
0.012596802687995791
0.008564693670950647
0.031655678926144716
0.029079666526968518
0.026507381171915614
0.024692715813407647
0.020452926752460885
0.016570606836911944
0.012550505208612525
0.00843268016409892
0.026393729234482608
0.02378409590902597
0.021048839627973055
0.01668405182369118
0.012553979245778746
0.008402051123097816
0.021186942563845988
0.018603993115938244
0.016380805655195032
0.012584605663645469
0.008394244136128852
0.016106048976239563
0.013151012129485645
0.008429596312852991
0.011841118242399506
0.008138110696054386
</DataArray>
</PointData>
<CellData/>
<Points>
<DataArray type="Float64" NumberOfComponents="3" Format="ascii">
6.781978641391569E-4 6.849168379545461E-4 0
0 0.001 0
0 0 0
0.0010526315789473716 0 0
7.592946077632823E-4 0.0015156323531722426 0
0 0.002 0
8.136788836857322E-4 0.0025000441115266715 0
0 0.003 0
0.0015790631339851304 9.089518366004881E-4 0
0.002105263157894739 0 0
8.366032442925774E-4 0.003490793444471912 0
0 0.004 0
0.0026285393130492966 8.206448556511515E-4 0
0.003157894736842106 0 0
8.346929987350008E-4 0.004484929425295986 0
0 0.005 0
8.335603513948687E-4 0.005472970802271826 0
0 0.006 0
0.003663942738714983 8.21345469930504E-4 0
0.004210526315789474 0 0
8.345667489803387E-4 0.006453666065881561 0
0 0.006999999999999999 0
8.383277428982046E-4 0.007395157851065143 0
0 0.007999999999999998 0
0.004713399909777996 8.350730398894121E-4 0
0.005263157894736843 0 0
9.447588768503525E-4 0.008480382811792099 0
0 0.009 0
7.184524295868867E-4 0.009349522787164988 0
0 0.01 0
0.005770203545976751 8.373523180549559E-4 0
0.006315789473684212 0 0
0.0010526315789473684 0.01 0
0.006832887443098693 8.409394393800644E-4 0
0.00736842105263158 0 0
0.0015948716921367126 0.009267231124032842 0
0.002105263157894737 0.010000000000000002 0
0.007886411612052766 8.342596799509655E-4 0
0.008421052631578949 0 0
0.0025892733104101767 0.009181428891658789 0
0.003157894736842105 0.01 0
0.00894021988393483 8.31967916404126E-4 0
0.009473684210526316 0 0
0.0036553203995493356 0.0091368602934217 0
0.004210526315789473 0.01 0
0.00999276847326614 8.316671539359843E-4 0
0.010526315789473686 0 0
0.0047190982626933164 0.009142306833019403 0
0.005263157894736842 0.01 0
0.011045312981406492 8.323109934657119E-4 0
0.011578947368421053 0 0
0.005780300656527837 0.009142786213732011 0
0.00631578947368421 0.01 0
0.012096740778394748 8.34112166957061E-4 0
0.01263157894736842 0 0
0.013147099582816204 8.387827553871896E-4 0
0.01368421052631579 0 0
0.006838490625913955 0.009146197452621777 0
0.007368421052631579 0.01 0
0.014199911473582261 8.453933512974035E-4 0
0.01473684210526316 0 0
0.015259947619834388 8.35840898965305E-4 0
0.015789473684210527 0 0
0.007892509285976514 0.009148060704932513 0
0.008421052631578947 0.01 0
0.016311320279355345 8.27915357265633E-4 0
0.016842105263157894 0 0
0.01736185343890378 7.918312512581291E-4 0
0.017894736842105265 0 0
0.008945106882779125 0.009148961312852777 0
0.009473684210526315 0.01 0
0.018394441893416283 7.369549117977815E-4 0
0.018947368421052633 0 0
0.01927844632705452 6.498485484211332E-4 0
0.02 0 0
0.009997024674373885 0.009149244188566929 0
0.010526315789473684 0.01 0
0.02 0.0010000000000000009 0
0.011048507718561371 0.009149099405269489 0
0.011578947368421052 0.01 0
0.02 0.0020000000000000018 0
0.019050421320803673 0.0015122878303078838 0
0.012099888872016802 0.009148655684906746 0
0.01263157894736842 0.01 0
0.02 0.0030000000000000005 0
0.019142290858903798 0.002569162682872943 0
0.013151511006452107 0.009148100624548334 0
0.013684210526315788 0.01 0
0.02 0.004 0
0.019149484841004066 0.003534116790079882 0
0.014203248987296156 0.00914781663423046 0
0.014736842105263158 0.01 0
0.01915411280942421 0.004506758861871823 0
0.02 0.005 0
0.015253926029440078 0.009148726332393376 0
0.015789473684210527 0.01 0
0.01915893584420206 0.005496933917801487 0
0.02 0.006 0
0.016294042560277597 0.009160346557129776 0
0.016842105263157894 0.01 0
0.01916201766151832 0.006488921087809279 0
0.019999999999999997 0.006999999999999999 0
0.0173078255709648 0.009181484043754996 0
0.017894736842105262 0.01 0
0.019177938647587447 0.007481144022395446 0
0.02 0.008 0
0.01839324395191005 0.009085390695670945 0
0.01894736842105263 0.01 0
0.019218962143403077 0.008465915501026853 0
0.020000000000000004 0.009000000000000001 0
0.019311914903273157 0.009310261239339559 0
0.02 0.01 0
0.001627335657184057 0.0020039482869027322 0
0.0016753237223087307 0.002992533819825978 0
0.0023338696365862626 0.0015657365749191458 0
0.0016678025421926006 0.00397959193983409 0
0.002498511744268925 0.003510349835108761 0
0.0026080102622284924 0.002470475301111697 0
0.0031933854634130605 0.001607571479717215 0
0.0016603902311292395 0.004964398403476638 0
0.0016610782468945695 0.005930237223602484 0
0.00248448168529788 0.004482686132704086 0
0.0033124240050719897 0.004044048061679488 0
0.003256933589263957 0.003205518860227677 0
0.003695539668419576 0.002482511771291178 0
0.004207739082590285 0.001654709327339768 0
0.0016706606038875596 0.006877805403054618 0
0.0016187163892077798 0.007690270270784526 0
0.0024801989105637905 0.00543554230080342 0
0.002487022674227707 0.0063769807868067525 0
0.0032875551107525744 0.0049621798614263865 0
0.004074834585609303 0.004514104807085463 0
0.004178733664424766 0.003447256895699455 0
0.004728435948596896 0.002509538763651253 0
0.005251730736585226 0.0016722143989844718 0
0.002074965238620987 0.008390031221993074 0
0.0025828472256819086 0.007419350601862939 0
0.00329463516979713 0.005891618984817589 0
0.0032327158885412815 0.0067073302066994606 0
0.004078756308175353 0.005405078881468272 0
0.00468438679950192 0.004960921911313611 0
0.004916792231148193 0.004236947222002686 0
0.005266817619320039 0.0033613140959034946 0
0.005783981407864666 0.0025105590396014813 0
0.006306177512768048 0.001677574160748814 0
0.003119323937438989 0.008301523631827241 0
0.0036748852325390203 0.007437363176157407 0
0.004176163023250816 0.006450029592321603 0
0.004918216423425876 0.005686918678891766 0
0.005433334449150875 0.00496155996711987 0
0.005862657209421552 0.004176539468460902 0
0.006315407614538799 0.0033394325872471956 0
0.006835916128702238 0.0025029844615498385 0
0.007359614740846069 0.0016693345819553112 0
0.004188895825707422 0.008280468787945961 0
0.004727655245322753 0.007419951306709882 0
0.005277400006611926 0.006592017080678516 0
0.005859268894403662 0.005751918454015414 0
0.0063773481658176 0.004962294264760551 0
0.006867244018543533 0.004151279308450362 0
0.007364248006737213 0.00332555367582619 0
0.007887040162822821 0.002495056424705142 0
0.008412133330046803 0.001664011119547845 0
0.005251833966733456 0.008284999169706419 0
0.005782370924528071 0.007433851504423039 0
0.006335318155297862 0.006603099464445578 0
0.0068720911441063895 0.005778574133208532 0
0.007390355704773663 0.004964489302265425 0
0.007899842805361391 0.004143234027977761 0
0.008413036702723885 0.00331762103104052 0
0.008938205085019213 0.0024903569496756484 0
0.00946425121827877 0.00166173039029855 0
0.006309485563304941 0.008291209688436356 0
0.006843316749000603 0.007448077004791596 0
0.007377754579311485 0.006614540978514386 0
0.007904624830981364 0.005788331793857834 0
0.00842446033474738 0.004964988126163709 0
0.008942509671046745 0.004139679278091358 0
0.009464080702772657 0.003314448168292159 0
0.009988867927418236 0.0024889045817097825 0
0.010514492701811425 0.001662519508477268 0
0.007364906353598057 0.008296637781191524 0
0.007893316950844156 0.00745423681602207 0
0.00842087786460135 0.00661979016278532 0
0.008944689987151859 0.005790662471618298 0
0.011564030151900417 0.001664152350383371 0
0.009466169784334455 0.0049646313769061414 0
0.009988242343640558 0.004138540038533228 0
0.010512543208923891 0.0033142307436972423 0
0.011038141637952302 0.002490141767652548 0
0.008417627017777226 0.008300120472616586 0
0.008942666335202961 0.007457869354116651 0
0.009466423586891015 0.006621882207209945 0
0.009988450730815312 0.005791264700042961 0
0.012613475638455912 0.0016694269025060932 0
0.01208654545661706 0.0024945868395729862 0
0.010509715492243625 0.004964608564661401 0
0.011033162889294984 0.004139333233767508 0
0.01156092494265612 0.003316622559558618 0
0.013665003401912505 0.0016778451205890946 0
0.009468747608167372 0.008301434071004964 0
0.009991413009218105 0.00745891603336354 0
0.010512503423752873 0.0066221467901898855 0
0.011031826530029496 0.005790989462844756 0
0.013134756318246517 0.002503980909118748 0
0.012607619490458103 0.003323217681345626 0
0.01155070015168355 0.004965051305185818 0
0.012074301593162166 0.0041424899511966875 0
0.014718888544727467 0.0016832196180963455 0
0.014184326500698228 0.0025188778838991003 0
0.01577696648642872 0.0016742643895191923 0
0.010519160776784843 0.008301624733431464 0
0.011039474105467564 0.007458557414108259 0
0.011557034607166996 0.006620954247799793 0
0.012071044062827175 0.0057893875092427174 0
0.013651557812045535 0.003339927580807622 0
0.01310597339917248 0.0041507756278739896 0
0.012583655775830845 0.004965740889434017 0
0.015243580545892359 0.0025377263163642158 0
0.014692172381364974 0.003370567758418574 0
0.016281000702184144 0.0025053964869254037 0
0.016837670308745088 0.0016488087794882071 0
0.01789084610607198 0.0015373084217001924 0
0.011568819572695668 0.008300944782420378 0
0.012086212974399426 0.007456712953284345 0
0.012598419090843934 0.006617158610324421 0
0.013101431873212043 0.005783360891154085 0
0.01411782666538913 0.0041724898041069726 0
0.013597416714996593 0.004965463778450804 0
0.015082268518677786 0.00426656395700541 0
0.015801717128784306 0.003509783049261146 0
0.01673273204515372 0.00326478974321695 0
0.017404034839526572 0.0025561367702606917 0
0.01835644951416743 0.002282254694312352 0
0.012618251489811577 0.008299465669435855 0
0.013132732395210735 0.007452771819831166 0
0.013638826937790135 0.006607714460283998 0
0.01411607780818104 0.00576014506644901 0
0.014546932347715189 0.0049781898956505815 0
0.015305913759819517 0.004991985607229701 0
0.01592362000976002 0.00455616219261493 0
0.016656645698457165 0.004067274890282542 0
0.017480639462400843 0.0035912111481432225 0
0.01828706126580987 0.0030864242512878026 0
0.013668864214771058 0.00829744668712887 0
0.014184066694606298 0.007446353626709913 0
0.014698523765616879 0.006591639746336981 0
0.015061456837318472 0.005713384909690173 0
0.015909414649507823 0.005448049197736818 0
0.016685878632617612 0.004999536744758303 0
0.017489898958277496 0.004530265591743225 0
0.018313463967180216 0.004042375642068125 0
0.01472125415310348 0.008295798870364352 0
0.015243180818194807 0.007437070422449392 0
0.01579023207440539 0.006511227061952419 0
0.016663189635261765 0.005948120360174573 0
0.01748920415084425 0.005481999302666162 0
0.018319589775380438 0.005005480658886366 0
0.015762611487230804 0.008310225641383806 0
0.016279201376812352 0.00748583487075281 0
0.016723838868960995 0.006760866745704412 0
0.017483078867270907 0.0064484788316870306 0
0.01832115117277423 0.005982466064129491 0
0.01677879020475209 0.008340045357508825 0
0.017369797574102872 0.007480740335558406 0
0.018314080737429402 0.00697298258592662 0
0.0176317763515201 0.00840904205441111 0
0.018372377860789123 0.007956928729290868 0
</DataArray>
</Points>
<Cells>
<DataArray type="Int32" Name="connectivity" Format="ascii">
0 1 2
0 2 3
4 5 1
6 7 5
8 3 9
10 11 7
12 9 13
14 15 11
16 17 15
18 13 19
20 21 17
21 22 23
24 19 25
23 26 27
28 29 27
30 25 31
28 32 29
33 31 34
35 36 32
37 34 38
39 40 36
41 38 42
43 44 40
45 42 46
47 48 44
49 46 50
51 52 48
53 50 54
55 54 56
57 58 52
59 56 60
61 60 62
63 64 58
65 62 66
67 66 68
69 70 64
71 68 72
73 72 74
75 76 70
73 74 77
78 79 76
80 81 77
82 83 79
84 85 80
86 87 83
88 89 84
90 91 87
92 88 93
94 95 91
96 93 97
98 99 95
100 97 101
102 103 99
104 101 105
103 106 107
108 105 109
110 109 111
110 111 107
0 4 1
5 4 6
0 3 8
0 8 4
7 6 10
6 4 112
4 8 112
10 6 113
112 113 6
114 112 8
9 12 8
114 8 12
11 10 14
15 14 16
115 14 10
10 113 115
116 115 113
113 112 117
116 113 117
114 117 112
114 12 118
114 118 117
13 18 12
118 12 18
20 17 16
22 21 20
119 16 14
14 115 119
120 20 16
120 16 119
121 119 115
115 116 121
121 116 122
123 116 117
123 122 116
118 124 117
123 117 124
18 125 118
124 118 125
19 24 18
125 18 24
23 22 26
28 27 26
20 126 22
126 20 120
127 26 22
127 22 126
128 120 119
128 119 121
120 129 126
129 120 128
130 128 121
130 121 122
131 130 122
123 124 132
123 132 122
122 132 131
125 133 124
124 133 132
25 30 24
134 24 30
24 134 125
133 125 134
127 135 26
28 26 35
35 26 135
28 35 32
127 126 136
129 136 126
127 136 135
137 128 130
128 137 129
138 136 129
138 129 137
139 137 130
131 139 130
140 139 131
131 132 141
140 131 141
133 142 132
141 132 142
134 143 133
142 133 143
31 33 30
144 30 33
30 144 134
143 134 144
145 135 136
39 35 135
39 135 145
36 35 39
145 136 146
138 146 136
138 147 146
138 137 147
137 139 147
139 148 147
140 148 139
140 141 149
140 149 148
141 142 150
149 141 150
143 151 142
150 142 151
144 152 143
151 143 152
34 37 33
153 33 37
33 153 144
152 144 153
146 154 145
145 43 39
43 145 154
40 39 43
154 146 155
146 147 155
156 155 147
148 156 147
148 157 156
149 157 148
149 158 157
150 158 149
151 159 150
158 150 159
152 160 151
159 151 160
153 161 152
160 152 161
38 41 37
162 37 41
37 162 153
161 153 162
155 163 154
154 47 43
47 154 163
44 43 47
163 155 164
156 164 155
164 156 165
157 165 156
165 157 166
158 166 157
166 158 167
159 167 158
160 168 159
167 159 168
161 169 160
168 160 169
162 170 161
169 161 170
42 45 41
171 41 45
41 171 162
170 162 171
164 172 163
163 51 47
51 163 172
48 47 51
172 164 173
165 173 164
173 165 174
166 174 165
174 166 175
167 175 166
46 49 45
175 167 176
168 176 167
169 177 168
176 168 177
170 178 169
177 169 178
171 179 170
178 170 179
180 45 49
45 180 171
179 171 180
173 181 172
172 57 51
57 172 181
52 51 57
181 173 182
174 182 173
182 174 183
175 183 174
183 175 184
176 184 175
50 53 49
185 49 53
49 185 180
184 176 186
177 186 176
178 187 177
186 177 187
179 188 178
187 178 188
189 180 185
180 189 179
188 179 189
54 55 53
182 190 181
181 63 57
63 181 190
58 57 63
190 182 191
183 191 182
191 183 192
184 192 183
192 184 193
186 193 184
194 53 55
53 194 185
195 185 194
185 195 189
193 186 196
187 196 186
188 197 187
196 187 197
198 189 195
189 198 188
197 188 198
56 59 55
199 55 59
55 199 194
60 61 59
191 200 190
190 69 63
69 190 200
64 63 69
200 191 201
192 201 191
201 192 202
193 202 192
202 193 203
196 203 193
204 194 199
194 204 195
205 195 204
195 205 198
203 196 206
197 206 196
207 198 205
198 207 197
206 197 207
208 59 61
59 208 199
209 199 208
199 209 204
62 65 61
210 61 65
61 210 208
66 67 65
201 211 200
200 75 69
75 200 211
70 69 75
211 201 212
202 212 201
212 202 213
203 213 202
213 203 214
206 214 203
215 204 209
204 215 205
216 205 215
205 216 207
217 207 216
214 206 217
207 217 206
218 208 210
208 218 209
219 209 218
209 219 215
210 220 218
221 65 67
65 221 210
220 210 221
67 222 221
68 71 67
222 67 71
73 71 72
212 223 211
211 78 75
78 211 223
76 75 78
223 212 224
213 224 212
224 213 225
214 225 213
225 214 226
217 226 214
227 215 219
215 227 216
228 216 227
226 217 228
216 228 217
229 227 219
220 230 218
219 218 230
229 219 230
231 230 220
221 222 232
221 232 220
231 220 232
233 232 222
73 81 71
71 81 222
233 222 81
73 77 81
224 234 223
223 82 78
82 223 234
79 78 82
234 224 235
225 235 224
235 225 236
226 236 225
236 226 237
228 237 226
238 227 229
237 228 238
227 238 228
239 238 229
229 230 240
239 229 240
231 241 230
241 240 230
231 232 242
231 242 241
233 243 232
243 242 232
233 81 85
233 85 243
85 81 80
235 244 234
234 86 82
86 234 244
83 82 86
244 235 245
236 245 235
245 236 246
237 246 236
247 246 237
238 247 237
239 247 238
239 240 248
239 248 247
240 241 249
240 249 248
242 250 241
249 241 250
242 243 251
242 251 250
89 243 85
243 89 251
85 84 89
245 252 244
244 90 86
90 244 252
87 86 90
252 245 253
246 253 245
253 246 254
247 254 246
248 254 247
248 249 255
255 254 248
249 250 256
256 255 249
250 251 257
250 257 256
92 251 89
251 92 257
89 88 92
253 258 252
252 94 90
94 252 258
91 90 94
258 253 259
253 254 259
260 259 254
260 254 255
255 256 261
260 255 261
256 257 262
261 256 262
257 92 96
96 262 257
93 96 92
259 263 258
258 98 94
98 258 263
95 94 98
263 259 264
260 261 264
260 264 259
261 262 265
261 265 264
262 96 100
100 265 262
97 100 96
266 263 264
263 102 98
266 102 263
99 98 102
265 267 264
266 264 267
100 104 265
267 265 104
101 104 100
266 106 102
266 267 106
103 102 106
104 108 267
108 106 267
105 108 104
110 106 108
110 107 106
110 108 109
</DataArray>
<DataArray type="Int32" Name="offsets" Format="ascii">
3 6 9 12
15 18 21 24
27 30 33 36
39 42 45 48
51 54 57 60
63 66 69 72
75 78 81 84
87 90 93 96
99 102 105 108
111 114 117 120
123 126 129 132
135 138 141 144
147 150 153 156
159 162 165 168
171 174 177 180
183 186 189 192
195 198 201 204
207 210 213 216
219 222 225 228
231 234 237 240
243 246 249 252
255 258 261 264
267 270 273 276
279 282 285 288
291 294 297 300
303 306 309 312
315 318 321 324
327 330 333 336
339 342 345 348
351 354 357 360
363 366 369 372
375 378 381 384
387 390 393 396
399 402 405 408
411 414 417 420
423 426 429 432
435 438 441 444
447 450 453 456
459 462 465 468
471 474 477 480
483 486 489 492
495 498 501 504
507 510 513 516
519 522 525 528
531 534 537 540
543 546 549 552
555 558 561 564
567 570 573 576
579 582 585 588
591 594 597 600
603 606 609 612
615 618 621 624
627 630 633 636
639 642 645 648
651 654 657 660
663 666 669 672
675 678 681 684
687 690 693 696
699 702 705 708
711 714 717 720
723 726 729 732
735 738 741 744
747 750 753 756
759 762 765 768
771 774 777 780
783 786 789 792
795 798 801 804
807 810 813 816
819 822 825 828
831 834 837 840
843 846 849 852
855 858 861 864
867 870 873 876
879 882 885 888
891 894 897 900
903 906 909 912
915 918 921 924
927 930 933 936
939 942 945 948
951 954 957 960
963 966 969 972
975 978 981 984
987 990 993 996
999 1002 1005 1008
1011 1014 1017 1020
1023 1026 1029 1032
1035 1038 1041 1044
1047 1050 1053 1056
1059 1062 1065 1068
1071 1074 1077 1080
1083 1086 1089 1092
1095 1098 1101 1104
1107 1110 1113 1116
1119 1122 1125 1128
1131 1134 1137 1140
1143 1146 1149 1152
1155 1158 1161 1164
1167 1170 1173 1176
1179 1182 1185 1188
1191 1194 1197 1200
1203 1206 1209 1212
1215 1218 1221 1224
1227 1230 1233 1236
1239 1242 1245 1248
1251 1254 1257 1260
1263 1266 1269 1272
1275 1278 1281 1284
1287 1290 1293 1296
1299 1302 1305 1308
1311 1314 1317 1320
1323 1326 1329 1332
1335 1338 1341 1344
1347 1350 1353 1356
1359 1362 1365 1368
1371 1374 1377 1380
1383 1386 1389 1392
1395 1398 1401 1404
1407 1410 1413 1416
1419 1422 1425 1428
</DataArray>
<DataArray type="UInt8" Name="types" Format="ascii">
5 5 5 5 5 5 5 5 5 5 5 5 5 5 5 5
5 5 5 5 5 5 5 5 5 5 5 5 5 5 5 5
5 5 5 5 5 5 5 5 5 5 5 5 5 5 5 5
5 5 5 5 5 5 5 5 5 5 5 5 5 5 5 5
5 5 5 5 5 5 5 5 5 5 5 5 5 5 5 5
5 5 5 5 5 5 5 5 5 5 5 5 5 5 5 5
5 5 5 5 5 5 5 5 5 5 5 5 5 5 5 5
5 5 5 5 5 5 5 5 5 5 5 5 5 5 5 5
5 5 5 5 5 5 5 5 5 5 5 5 5 5 5 5
5 5 5 5 5 5 5 5 5 5 5 5 5 5 5 5
5 5 5 5 5 5 5 5 5 5 5 5 5 5 5 5
5 5 5 5 5 5 5 5 5 5 5 5 5 5 5 5
5 5 5 5 5 5 5 5 5 5 5 5 5 5 5 5
5 5 5 5 5 5 5 5 5 5 5 5 5 5 5 5
5 5 5 5 5 5 5 5 5 5 5 5 5 5 5 5
5 5 5 5 5 5 5 5 5 5 5 5 5 5 5 5
5 5 5 5 5 5 5 5 5 5 5 5 5 5 5 5
5 5 5 5 5 5 5 5 5 5 5 5 5 5 5 5
5 5 5 5 5 5 5 5 5 5 5 5 5 5 5 5
5 5 5 5 5 5 5 5 5 5 5 5 5 5 5 5
5 5 5 5 5 5 5 5 5 5 5 5 5 5 5 5
5 5 5 5 5 5 5 5 5 5 5 5 5 5 5 5
5 5 5 5 5 5 5 5 5 5 5 5 5 5 5 5
5 5 5 5 5 5 5 5 5 5 5 5 5 5 5 5
5 5 5 5 5 5 5 5 5 5 5 5 5 5 5 5
5 5 5 5 5 5 5 5 5 5 5 5 5 5 5 5
5 5 5 5 5 5 5 5 5 5 5 5 5 5 5 5
5 5 5 5 5 5 5 5 5 5 5 5 5 5 5 5
5 5 5 5 5 5 5 5 5 5 5 5 5 5 5 5
5 5 5 5 5 5 5 5 5 5 5 5
</DataArray>
</Cells>
</Piece>
</UnstructuredGrid>
</VTKFile>
